
     Program PWSCF v.7.4 starts on  1Jul2025 at 11:57:33 

     This program is part of the open-source Quantum ESPRESSO suite
     for quantum simulation of materials; please cite
         "P. Giannozzi et al., J. Phys.:Condens. Matter 21 395502 (2009);
         "P. Giannozzi et al., J. Phys.:Condens. Matter 29 465901 (2017);
         "P. Giannozzi et al., J. Chem. Phys. 152 154105 (2020);
          URL http://www.quantum-espresso.org", 
     in publications or presentations arising from this work. More details at
     http://www.quantum-espresso.org/quote

     Parallel version (MPI & OpenMP), running on       8 processor cores
     Number of MPI processes:                 8
     Threads/MPI process:                     1

     MPI processes distributed on     1 nodes
     313612 MiB available memory on the printing compute node when the environment starts
 
     Reading input from pw.nscf.in

     Current dimensions of program PWSCF are:
     Max number of different atomic species (ntypx) = 10
     Max number of k-points (npk) =  40000
     Max angular momentum in pseudopotentials (lmaxx) =  4
     file O.pbe-n-kjpaw_psl.0.1.UPF: wavefunction(s)  2P renormalized
     file K.pbe-spn-kjpaw_psl.1.0.0.UPF: wavefunction(s)  3S renormalized

     Atomic positions and unit cell read from directory:
     ./tmp/K2Co2TeO6.save/
 
     Message from routine setup:
     using ibrav=0 with symmetry is DISCOURAGED, use correct ibrav instead
 
     R & G space division:  proc/nbgrp/npool/nimage =       8
     Subspace diagonalization in iterative solution of the eigenvalue problem:
     one sub-group per band group will be used
     scalapack distributed-memory algorithm (size of sub-group:  2*  2 procs)

 
     Parallelization info
     --------------------
     sticks:   dense  smooth     PW     G-vecs:    dense   smooth      PW
     Min         401     201     54                44445    15705    2310
     Max         403     202     55                44448    15710    2321
     Sum        3217    1615    439               355571   125655   18537
 
     Using Slab Decomposition
 


     bravais-lattice index     =            0
     lattice parameter (alat)  =       9.8453  a.u.
     unit-cell volume          =    2002.1358 (a.u.)^3
     number of atoms/cell      =           22
     number of atomic types    =            4
     number of electrons       =       188.00
     number of Kohn-Sham states=          150
     kinetic-energy cutoff     =      60.0000  Ry
     charge density cutoff     =     480.0000  Ry
     Exchange-correlation= SLA  PW   PBE  PBE
                           (   1   4   3   4   0   0   0)
     Hubbard projectors: ortho-atomic
     Hubbard parameters of DFT+U (Dudarev formulation) in eV:
     U(Co-3d) =  3.3200

     Internal variables: lda_plus_u = T, lda_plus_u_kind = 0

     celldm(1)=   9.845284  celldm(2)=   0.000000  celldm(3)=   0.000000
     celldm(4)=   0.000000  celldm(5)=   0.000000  celldm(6)=   0.000000

     crystal axes: (cart. coord. in units of alat)
               a(1) = (   0.866025  -0.500000   0.000000 )  
               a(2) = (   0.000000   1.000000   0.000000 )  
               a(3) = (   0.000000   0.000000   2.422580 )  

     reciprocal axes: (cart. coord. in units 2 pi/alat)
               b(1) = (  1.154701  0.000000  0.000000 )  
               b(2) = (  0.577350  1.000000  0.000000 )  
               b(3) = (  0.000000  0.000000  0.412783 )  


     PseudoPot. # 1 for O  read from file:
     ./pseudos/O.pbe-n-kjpaw_psl.0.1.UPF
     MD5 check sum: 0234752ac141de4415c5fc33072bef88
     Pseudo is Projector augmented-wave + core cor, Zval =  6.0
     Generated using "atomic" code by A. Dal Corso  v.5.0.99 svn rev. 10869
     Shape of augmentation charge: BESSEL
     Using radial grid of 1095 points,  4 beta functions with: 
                l(1) =   0
                l(2) =   0
                l(3) =   1
                l(4) =   1
     Q(r) pseudized with 0 coefficients 


     PseudoPot. # 2 for Te read from file:
     ./pseudos/Te_pbe_v1.uspp.F.UPF
     MD5 check sum: c319670d6894cc26e93307826a071b75
     Pseudo is Ultrasoft + core correction, Zval =  6.0
     Generated by new atomic code, or converted to UPF format
     Using radial grid of  891 points,  5 beta functions with: 
                l(1) =   0
                l(2) =   0
                l(3) =   1
                l(4) =   1
                l(5) =   2
     Q(r) pseudized with  6 coefficients,  rinner =    1.800   1.800   1.800
                                                       1.800   1.800

     PseudoPot. # 3 for K  read from file:
     ./pseudos/K.pbe-spn-kjpaw_psl.1.0.0.UPF
     MD5 check sum: 7d58810084cac21f60fbe77ea2b688fd
     Pseudo is Projector augmented-wave + core cor, Zval =  9.0
     Generated using "atomic" code by A. Dal Corso  v.5.1
     Shape of augmentation charge: PSQ
     Using radial grid of 1165 points,  6 beta functions with: 
                l(1) =   0
                l(2) =   0
                l(3) =   1
                l(4) =   1
                l(5) =   2
                l(6) =   2
     Q(r) pseudized with 0 coefficients 


     PseudoPot. # 4 for Co read from file:
     ./pseudos/Co_pbe_v1.2.uspp.F.UPF
     MD5 check sum: 5f91765df6ddd3222702df6e7b74a16d
     Pseudo is Ultrasoft + core correction, Zval = 17.0
     Generated by new atomic code, or converted to UPF format
     Using radial grid of  863 points,  6 beta functions with: 
                l(1) =   0
                l(2) =   0
                l(3) =   1
                l(4) =   1
                l(5) =   2
                l(6) =   2
     Q(r) pseudized with  8 coefficients,  rinner =    1.200   1.200   1.200
                                                       1.200   1.200

     atomic species   valence    mass     pseudopotential
     O                 6.00    15.99900     O ( 1.00)
     Te                6.00   127.60000     Te( 1.00)
     K                 9.00    39.09830     K ( 1.00)
     Co               17.00    58.93300     Co( 1.00)

     Starting magnetic structure 
     atomic species   magnetization
     O               0.000
     Te              0.000
     K               0.000
     Co              0.176

     24 Sym. Ops., with inversion, found (12 have fractional translation)


                                    s                        frac. trans.

      isym =  1     identity                                     

 cryst.   s( 1) = (     1          0          0      )
                  (     0          1          0      )
                  (     0          0          1      )

 cart.    s( 1) = (  1.0000000  0.0000000  0.0000000 )
                  (  0.0000000  1.0000000  0.0000000 )
                  (  0.0000000  0.0000000  1.0000000 )


      isym =  2     180 deg rotation - cart. axis [0,0,1]        

 cryst.   s( 2) = (    -1          0          0      )    f =(  0.0000000 )
                  (     0         -1          0      )       (  0.0000000 )
                  (     0          0          1      )       ( -0.5000000 )

 cart.    s( 2) = ( -1.0000000  0.0000000  0.0000000 )    f =(  0.0000000 )
                  (  0.0000000 -1.0000000  0.0000000 )       (  0.0000000 )
                  (  0.0000000  0.0000000  1.0000000 )       ( -1.2112900 )


      isym =  3     180 deg rotation - cart. axis [0,1,0]        

 cryst.   s( 3) = (    -1         -1          0      )    f =(  0.0000000 )
                  (     0          1          0      )       (  0.0000000 )
                  (     0          0         -1      )       ( -0.5000000 )

 cart.    s( 3) = ( -1.0000000  0.0000000  0.0000000 )    f =(  0.0000000 )
                  (  0.0000000  1.0000000  0.0000000 )       (  0.0000000 )
                  (  0.0000000  0.0000000 -1.0000000 )       ( -1.2112900 )


      isym =  4     180 deg rotation - cart. axis [1,0,0]        

 cryst.   s( 4) = (     1          1          0      )
                  (     0         -1          0      )
                  (     0          0         -1      )

 cart.    s( 4) = (  1.0000000  0.0000000  0.0000000 )
                  (  0.0000000 -1.0000000  0.0000000 )
                  (  0.0000000  0.0000000 -1.0000000 )


      isym =  5      60 deg rotation - cryst. axis [0,0,1]       

 cryst.   s( 5) = (     1          1          0      )    f =(  0.0000000 )
                  (    -1          0          0      )       (  0.0000000 )
                  (     0          0          1      )       ( -0.5000000 )

 cart.    s( 5) = (  0.5000000 -0.8660254  0.0000000 )    f =(  0.0000000 )
                  (  0.8660254  0.5000000  0.0000000 )       (  0.0000000 )
                  (  0.0000000  0.0000000  1.0000000 )       ( -1.2112900 )


      isym =  6      60 deg rotation - cryst. axis [0,0,-1]      

 cryst.   s( 6) = (     0         -1          0      )    f =(  0.0000000 )
                  (     1          1          0      )       (  0.0000000 )
                  (     0          0          1      )       ( -0.5000000 )

 cart.    s( 6) = (  0.5000000  0.8660254  0.0000000 )    f =(  0.0000000 )
                  ( -0.8660254  0.5000000  0.0000000 )       (  0.0000000 )
                  (  0.0000000  0.0000000  1.0000000 )       ( -1.2112900 )


      isym =  7     120 deg rotation - cryst. axis [0,0,1]       

 cryst.   s( 7) = (     0          1          0      )
                  (    -1         -1          0      )
                  (     0          0          1      )

 cart.    s( 7) = ( -0.5000000 -0.8660254  0.0000000 )
                  (  0.8660254 -0.5000000  0.0000000 )
                  (  0.0000000  0.0000000  1.0000000 )


      isym =  8     120 deg rotation - cryst. axis [0,0,-1]      

 cryst.   s( 8) = (    -1         -1          0      )
                  (     1          0          0      )
                  (     0          0          1      )

 cart.    s( 8) = ( -0.5000000  0.8660254  0.0000000 )
                  ( -0.8660254 -0.5000000  0.0000000 )
                  (  0.0000000  0.0000000  1.0000000 )


      isym =  9     180 deg rotation - cryst. axis [1,-1,0]      

 cryst.   s( 9) = (     1          0          0      )    f =(  0.0000000 )
                  (    -1         -1          0      )       (  0.0000000 )
                  (     0          0         -1      )       ( -0.5000000 )

 cart.    s( 9) = (  0.5000000 -0.8660254  0.0000000 )    f =(  0.0000000 )
                  ( -0.8660254 -0.5000000  0.0000000 )       (  0.0000000 )
                  (  0.0000000  0.0000000 -1.0000000 )       ( -1.2112900 )


      isym = 10     180 deg rotation - cryst. axis [2,1,0]       

 cryst.   s(10) = (     0          1          0      )    f =(  0.0000000 )
                  (     1          0          0      )       (  0.0000000 )
                  (     0          0         -1      )       ( -0.5000000 )

 cart.    s(10) = (  0.5000000  0.8660254  0.0000000 )    f =(  0.0000000 )
                  (  0.8660254 -0.5000000  0.0000000 )       (  0.0000000 )
                  (  0.0000000  0.0000000 -1.0000000 )       ( -1.2112900 )


      isym = 11     180 deg rotation - cryst. axis [0,1,0]       

 cryst.   s(11) = (     0         -1          0      )
                  (    -1          0          0      )
                  (     0          0         -1      )

 cart.    s(11) = ( -0.5000000 -0.8660254  0.0000000 )
                  ( -0.8660254  0.5000000  0.0000000 )
                  (  0.0000000  0.0000000 -1.0000000 )


      isym = 12     180 deg rotation - cryst. axis [1,1,0]       

 cryst.   s(12) = (    -1          0          0      )
                  (     1          1          0      )
                  (     0          0         -1      )

 cart.    s(12) = ( -0.5000000  0.8660254  0.0000000 )
                  (  0.8660254  0.5000000  0.0000000 )
                  (  0.0000000  0.0000000 -1.0000000 )


      isym = 13     inversion                                    

 cryst.   s(13) = (    -1          0          0      )
                  (     0         -1          0      )
                  (     0          0         -1      )

 cart.    s(13) = ( -1.0000000  0.0000000  0.0000000 )
                  (  0.0000000 -1.0000000  0.0000000 )
                  (  0.0000000  0.0000000 -1.0000000 )


      isym = 14     inv. 180 deg rotation - cart. axis [0,0,1]   

 cryst.   s(14) = (     1          0          0      )    f =(  0.0000000 )
                  (     0          1          0      )       (  0.0000000 )
                  (     0          0         -1      )       ( -0.5000000 )

 cart.    s(14) = (  1.0000000  0.0000000  0.0000000 )    f =(  0.0000000 )
                  (  0.0000000  1.0000000  0.0000000 )       (  0.0000000 )
                  (  0.0000000  0.0000000 -1.0000000 )       ( -1.2112900 )


      isym = 15     inv. 180 deg rotation - cart. axis [0,1,0]   

 cryst.   s(15) = (     1          1          0      )    f =(  0.0000000 )
                  (     0         -1          0      )       (  0.0000000 )
                  (     0          0          1      )       ( -0.5000000 )

 cart.    s(15) = (  1.0000000  0.0000000  0.0000000 )    f =(  0.0000000 )
                  (  0.0000000 -1.0000000  0.0000000 )       (  0.0000000 )
                  (  0.0000000  0.0000000  1.0000000 )       ( -1.2112900 )


      isym = 16     inv. 180 deg rotation - cart. axis [1,0,0]   

 cryst.   s(16) = (    -1         -1          0      )
                  (     0          1          0      )
                  (     0          0          1      )

 cart.    s(16) = ( -1.0000000  0.0000000  0.0000000 )
                  (  0.0000000  1.0000000  0.0000000 )
                  (  0.0000000  0.0000000  1.0000000 )


      isym = 17     inv.  60 deg rotation - cryst. axis [0,0,1]  

 cryst.   s(17) = (    -1         -1          0      )    f =(  0.0000000 )
                  (     1          0          0      )       (  0.0000000 )
                  (     0          0         -1      )       ( -0.5000000 )

 cart.    s(17) = ( -0.5000000  0.8660254  0.0000000 )    f =(  0.0000000 )
                  ( -0.8660254 -0.5000000  0.0000000 )       (  0.0000000 )
                  (  0.0000000  0.0000000 -1.0000000 )       ( -1.2112900 )


      isym = 18     inv.  60 deg rotation - cryst. axis [0,0,-1] 

 cryst.   s(18) = (     0          1          0      )    f =(  0.0000000 )
                  (    -1         -1          0      )       (  0.0000000 )
                  (     0          0         -1      )       ( -0.5000000 )

 cart.    s(18) = ( -0.5000000 -0.8660254  0.0000000 )    f =(  0.0000000 )
                  (  0.8660254 -0.5000000  0.0000000 )       (  0.0000000 )
                  (  0.0000000  0.0000000 -1.0000000 )       ( -1.2112900 )


      isym = 19     inv. 120 deg rotation - cryst. axis [0,0,1]  

 cryst.   s(19) = (     0         -1          0      )
                  (     1          1          0      )
                  (     0          0         -1      )

 cart.    s(19) = (  0.5000000  0.8660254  0.0000000 )
                  ( -0.8660254  0.5000000  0.0000000 )
                  (  0.0000000  0.0000000 -1.0000000 )


      isym = 20     inv. 120 deg rotation - cryst. axis [0,0,-1] 

 cryst.   s(20) = (     1          1          0      )
                  (    -1          0          0      )
                  (     0          0         -1      )

 cart.    s(20) = (  0.5000000 -0.8660254  0.0000000 )
                  (  0.8660254  0.5000000  0.0000000 )
                  (  0.0000000  0.0000000 -1.0000000 )


      isym = 21     inv. 180 deg rotation - cryst. axis [1,-1,0] 

 cryst.   s(21) = (    -1          0          0      )    f =(  0.0000000 )
                  (     1          1          0      )       (  0.0000000 )
                  (     0          0          1      )       ( -0.5000000 )

 cart.    s(21) = ( -0.5000000  0.8660254  0.0000000 )    f =(  0.0000000 )
                  (  0.8660254  0.5000000  0.0000000 )       (  0.0000000 )
                  (  0.0000000  0.0000000  1.0000000 )       ( -1.2112900 )


      isym = 22     inv. 180 deg rotation - cryst. axis [2,1,0]  

 cryst.   s(22) = (     0         -1          0      )    f =(  0.0000000 )
                  (    -1          0          0      )       (  0.0000000 )
                  (     0          0          1      )       ( -0.5000000 )

 cart.    s(22) = ( -0.5000000 -0.8660254  0.0000000 )    f =(  0.0000000 )
                  ( -0.8660254  0.5000000  0.0000000 )       (  0.0000000 )
                  (  0.0000000  0.0000000  1.0000000 )       ( -1.2112900 )


      isym = 23     inv. 180 deg rotation - cryst. axis [0,1,0]  

 cryst.   s(23) = (     0          1          0      )
                  (     1          0          0      )
                  (     0          0          1      )

 cart.    s(23) = (  0.5000000  0.8660254  0.0000000 )
                  (  0.8660254 -0.5000000  0.0000000 )
                  (  0.0000000  0.0000000  1.0000000 )


      isym = 24     inv. 180 deg rotation - cryst. axis [1,1,0]  

 cryst.   s(24) = (     1          0          0      )
                  (    -1         -1          0      )
                  (     0          0          1      )

 cart.    s(24) = (  0.5000000 -0.8660254  0.0000000 )
                  ( -0.8660254 -0.5000000  0.0000000 )
                  (  0.0000000  0.0000000  1.0000000 )


   Cartesian axes

     site n.     atom                  positions (alat units)
         1        Te     tau(   1) = (   0.0000000   0.0000000   1.2112900  )
         2        Te     tau(   2) = (   0.0000000   0.0000000   0.0000000  )
         3        Co     tau(   3) = (   0.2886751   0.5000000   1.2112900  )
         4        Co     tau(   4) = (   0.5773503  -0.0000000   0.0000000  )
         5        Co     tau(   5) = (   0.2886751   0.5000000   0.0000000  )
         6        Co     tau(   6) = (   0.5773503  -0.0000000   1.2112900  )
         7        K      tau(   7) = (   0.2886751   0.5000000   1.8169351  )
         8        K      tau(   8) = (   0.5773503  -0.0000000   1.8169351  )
         9        K      tau(   9) = (   0.5773503  -0.0000000   0.6056450  )
        10        K      tau(  10) = (   0.2886751   0.5000000   0.6056450  )
        11        O      tau(  11) = (   0.2727114  -0.1574500   1.4101839  )
        12        O      tau(  12) = (   0.5933140   0.3425500   2.2236863  )
        13        O      tau(  13) = (   0.0000000   0.3149000   1.4101839  )
        14        O      tau(  14) = (   0.5933140  -0.3425500   0.1988938  )
        15        O      tau(  15) = (   0.0000000   0.6851000   0.1988938  )
        16        O      tau(  16) = (   0.2727114   0.1574500   1.0123962  )
        17        O      tau(  17) = (   0.5933140   0.3425500   1.4101839  )
        18        O      tau(  18) = (   0.2727114  -0.1574500   2.2236863  )
        19        O      tau(  19) = (   0.0000000   0.3149000   2.2236863  )
        20        O      tau(  20) = (   0.2727114   0.1574500   0.1988938  )
        21        O      tau(  21) = (   0.0000000   0.6851000   1.0123962  )
        22        O      tau(  22) = (   0.5933140  -0.3425500   1.0123962  )

   Crystallographic axes

     site n.     atom                  positions (cryst. coord.)
         1        Te     tau(   1) = (  0.0000000  0.0000000  0.5000000  )
         2        Te     tau(   2) = (  0.0000000  0.0000000  0.0000000  )
         3        Co     tau(   3) = (  0.3333333  0.6666667  0.5000000  )
         4        Co     tau(   4) = (  0.6666667  0.3333333  0.0000000  )
         5        Co     tau(   5) = (  0.3333333  0.6666667  0.0000000  )
         6        Co     tau(   6) = (  0.6666667  0.3333333  0.5000000  )
         7        K      tau(   7) = (  0.3333333  0.6666667  0.7500000  )
         8        K      tau(   8) = (  0.6666667  0.3333333  0.7500000  )
         9        K      tau(   9) = (  0.6666667  0.3333333  0.2500000  )
        10        K      tau(  10) = (  0.3333333  0.6666667  0.2500000  )
        11        O      tau(  11) = (  0.3149000  0.0000000  0.5821000  )
        12        O      tau(  12) = (  0.6851000  0.6851000  0.9179000  )
        13        O      tau(  13) = (  0.0000000  0.3149000  0.5821000  )
        14        O      tau(  14) = (  0.6851000  0.0000000  0.0821000  )
        15        O      tau(  15) = (  0.0000000  0.6851000  0.0821000  )
        16        O      tau(  16) = (  0.3149000  0.3149000  0.4179000  )
        17        O      tau(  17) = (  0.6851000  0.6851000  0.5821000  )
        18        O      tau(  18) = (  0.3149000  0.0000000  0.9179000  )
        19        O      tau(  19) = (  0.0000000  0.3149000  0.9179000  )
        20        O      tau(  20) = (  0.3149000  0.3149000  0.0821000  )
        21        O      tau(  21) = (  0.0000000  0.6851000  0.4179000  )
        22        O      tau(  22) = (  0.6851000  0.0000000  0.4179000  )

     number of k points=   148  Gaussian smearing, width (Ry)=  0.0100
                       cart. coord. in units 2pi/alat
        k(    1) = (   0.0000000   0.0000000   0.0000000), wk =   0.0005144
        k(    2) = (   0.0000000   0.0000000   0.0687972), wk =   0.0010288
        k(    3) = (   0.0000000   0.0000000   0.1375944), wk =   0.0010288
        k(    4) = (   0.0000000   0.0000000  -0.2063915), wk =   0.0005144
        k(    5) = (   0.0320750   0.0555556   0.0000000), wk =   0.0030864
        k(    6) = (   0.0320750   0.0555556   0.0687972), wk =   0.0061728
        k(    7) = (   0.0320750   0.0555556   0.1375944), wk =   0.0061728
        k(    8) = (   0.0320750   0.0555556  -0.2063915), wk =   0.0030864
        k(    9) = (   0.0641500   0.1111111   0.0000000), wk =   0.0030864
        k(   10) = (   0.0641500   0.1111111   0.0687972), wk =   0.0061728
        k(   11) = (   0.0641500   0.1111111   0.1375944), wk =   0.0061728
        k(   12) = (   0.0641500   0.1111111  -0.2063915), wk =   0.0030864
        k(   13) = (   0.0962250   0.1666667   0.0000000), wk =   0.0030864
        k(   14) = (   0.0962250   0.1666667   0.0687972), wk =   0.0061728
        k(   15) = (   0.0962250   0.1666667   0.1375944), wk =   0.0061728
        k(   16) = (   0.0962250   0.1666667  -0.2063915), wk =   0.0030864
        k(   17) = (   0.1283001   0.2222222   0.0000000), wk =   0.0030864
        k(   18) = (   0.1283001   0.2222222   0.0687972), wk =   0.0061728
        k(   19) = (   0.1283001   0.2222222   0.1375944), wk =   0.0061728
        k(   20) = (   0.1283001   0.2222222  -0.2063915), wk =   0.0030864
        k(   21) = (   0.1603751   0.2777778   0.0000000), wk =   0.0030864
        k(   22) = (   0.1603751   0.2777778   0.0687972), wk =   0.0061728
        k(   23) = (   0.1603751   0.2777778   0.1375944), wk =   0.0061728
        k(   24) = (   0.1603751   0.2777778  -0.2063915), wk =   0.0030864
        k(   25) = (   0.1924501   0.3333333   0.0000000), wk =   0.0030864
        k(   26) = (   0.1924501   0.3333333   0.0687972), wk =   0.0061728
        k(   27) = (   0.1924501   0.3333333   0.1375944), wk =   0.0061728
        k(   28) = (   0.1924501   0.3333333  -0.2063915), wk =   0.0030864
        k(   29) = (   0.2245251   0.3888889   0.0000000), wk =   0.0030864
        k(   30) = (   0.2245251   0.3888889   0.0687972), wk =   0.0061728
        k(   31) = (   0.2245251   0.3888889   0.1375944), wk =   0.0061728
        k(   32) = (   0.2245251   0.3888889  -0.2063915), wk =   0.0030864
        k(   33) = (   0.2566001   0.4444444   0.0000000), wk =   0.0030864
        k(   34) = (   0.2566001   0.4444444   0.0687972), wk =   0.0061728
        k(   35) = (   0.2566001   0.4444444   0.1375944), wk =   0.0061728
        k(   36) = (   0.2566001   0.4444444  -0.2063915), wk =   0.0030864
        k(   37) = (  -0.2886751  -0.5000000   0.0000000), wk =   0.0015432
        k(   38) = (  -0.2886751  -0.5000000   0.0687972), wk =   0.0030864
        k(   39) = (  -0.2886751  -0.5000000   0.1375944), wk =   0.0030864
        k(   40) = (  -0.2886751  -0.5000000  -0.2063915), wk =   0.0015432
        k(   41) = (   0.0962250   0.0555556   0.0000000), wk =   0.0030864
        k(   42) = (   0.0962250   0.0555556   0.0687972), wk =   0.0061728
        k(   43) = (   0.0962250   0.0555556   0.1375944), wk =   0.0061728
        k(   44) = (   0.0962250   0.0555556  -0.2063915), wk =   0.0030864
        k(   45) = (   0.1283001   0.1111111   0.0000000), wk =   0.0061728
        k(   46) = (   0.1283001   0.1111111   0.0687972), wk =   0.0123457
        k(   47) = (   0.1283001   0.1111111   0.1375944), wk =   0.0123457
        k(   48) = (   0.1283001   0.1111111  -0.2063915), wk =   0.0061728
        k(   49) = (   0.1603751   0.1666667   0.0000000), wk =   0.0061728
        k(   50) = (   0.1603751   0.1666667   0.0687972), wk =   0.0123457
        k(   51) = (   0.1603751   0.1666667   0.1375944), wk =   0.0123457
        k(   52) = (   0.1603751   0.1666667  -0.2063915), wk =   0.0061728
        k(   53) = (   0.1924501   0.2222222   0.0000000), wk =   0.0061728
        k(   54) = (   0.1924501   0.2222222   0.0687972), wk =   0.0123457
        k(   55) = (   0.1924501   0.2222222   0.1375944), wk =   0.0123457
        k(   56) = (   0.1924501   0.2222222  -0.2063915), wk =   0.0061728
        k(   57) = (   0.2245251   0.2777778   0.0000000), wk =   0.0061728
        k(   58) = (   0.2245251   0.2777778   0.0687972), wk =   0.0123457
        k(   59) = (   0.2245251   0.2777778   0.1375944), wk =   0.0123457
        k(   60) = (   0.2245251   0.2777778  -0.2063915), wk =   0.0061728
        k(   61) = (   0.2566001   0.3333333   0.0000000), wk =   0.0061728
        k(   62) = (   0.2566001   0.3333333   0.0687972), wk =   0.0123457
        k(   63) = (   0.2566001   0.3333333   0.1375944), wk =   0.0123457
        k(   64) = (   0.2566001   0.3333333  -0.2063915), wk =   0.0061728
        k(   65) = (   0.2886751   0.3888889   0.0000000), wk =   0.0061728
        k(   66) = (   0.2886751   0.3888889   0.0687972), wk =   0.0123457
        k(   67) = (   0.2886751   0.3888889   0.1375944), wk =   0.0123457
        k(   68) = (   0.2886751   0.3888889  -0.2063915), wk =   0.0061728
        k(   69) = (   0.3207501   0.4444444   0.0000000), wk =   0.0061728
        k(   70) = (   0.3207501   0.4444444   0.0687972), wk =   0.0123457
        k(   71) = (   0.3207501   0.4444444   0.1375944), wk =   0.0123457
        k(   72) = (   0.3207501   0.4444444  -0.2063915), wk =   0.0061728
        k(   73) = (   0.1924501   0.1111111   0.0000000), wk =   0.0030864
        k(   74) = (   0.1924501   0.1111111   0.0687972), wk =   0.0061728
        k(   75) = (   0.1924501   0.1111111   0.1375944), wk =   0.0061728
        k(   76) = (   0.1924501   0.1111111  -0.2063915), wk =   0.0030864
        k(   77) = (   0.2245251   0.1666667   0.0000000), wk =   0.0061728
        k(   78) = (   0.2245251   0.1666667   0.0687972), wk =   0.0123457
        k(   79) = (   0.2245251   0.1666667   0.1375944), wk =   0.0123457
        k(   80) = (   0.2245251   0.1666667  -0.2063915), wk =   0.0061728
        k(   81) = (   0.2566001   0.2222222   0.0000000), wk =   0.0061728
        k(   82) = (   0.2566001   0.2222222   0.0687972), wk =   0.0123457
        k(   83) = (   0.2566001   0.2222222   0.1375944), wk =   0.0123457
        k(   84) = (   0.2566001   0.2222222  -0.2063915), wk =   0.0061728
        k(   85) = (   0.2886751   0.2777778   0.0000000), wk =   0.0061728
        k(   86) = (   0.2886751   0.2777778   0.0687972), wk =   0.0123457
        k(   87) = (   0.2886751   0.2777778   0.1375944), wk =   0.0123457
        k(   88) = (   0.2886751   0.2777778  -0.2063915), wk =   0.0061728
        k(   89) = (   0.3207501   0.3333333   0.0000000), wk =   0.0061728
        k(   90) = (   0.3207501   0.3333333   0.0687972), wk =   0.0123457
        k(   91) = (   0.3207501   0.3333333   0.1375944), wk =   0.0123457
        k(   92) = (   0.3207501   0.3333333  -0.2063915), wk =   0.0061728
        k(   93) = (   0.3528252   0.3888889   0.0000000), wk =   0.0061728
        k(   94) = (   0.3528252   0.3888889   0.0687972), wk =   0.0123457
        k(   95) = (   0.3528252   0.3888889   0.1375944), wk =   0.0123457
        k(   96) = (   0.3528252   0.3888889  -0.2063915), wk =   0.0061728
        k(   97) = (   0.3849002   0.4444444   0.0000000), wk =   0.0030864
        k(   98) = (   0.3849002   0.4444444   0.0687972), wk =   0.0061728
        k(   99) = (   0.3849002   0.4444444   0.1375944), wk =   0.0061728
        k(  100) = (   0.3849002   0.4444444  -0.2063915), wk =   0.0030864
        k(  101) = (   0.2886751   0.1666667   0.0000000), wk =   0.0030864
        k(  102) = (   0.2886751   0.1666667   0.0687972), wk =   0.0061728
        k(  103) = (   0.2886751   0.1666667   0.1375944), wk =   0.0061728
        k(  104) = (   0.2886751   0.1666667  -0.2063915), wk =   0.0030864
        k(  105) = (   0.3207501   0.2222222   0.0000000), wk =   0.0061728
        k(  106) = (   0.3207501   0.2222222   0.0687972), wk =   0.0123457
        k(  107) = (   0.3207501   0.2222222   0.1375944), wk =   0.0123457
        k(  108) = (   0.3207501   0.2222222  -0.2063915), wk =   0.0061728
        k(  109) = (   0.3528252   0.2777778   0.0000000), wk =   0.0061728
        k(  110) = (   0.3528252   0.2777778   0.0687972), wk =   0.0123457
        k(  111) = (   0.3528252   0.2777778   0.1375944), wk =   0.0123457
        k(  112) = (   0.3528252   0.2777778  -0.2063915), wk =   0.0061728
        k(  113) = (   0.3849002   0.3333333   0.0000000), wk =   0.0061728
        k(  114) = (   0.3849002   0.3333333   0.0687972), wk =   0.0123457
        k(  115) = (   0.3849002   0.3333333   0.1375944), wk =   0.0123457
        k(  116) = (   0.3849002   0.3333333  -0.2063915), wk =   0.0061728
        k(  117) = (   0.4169752   0.3888889   0.0000000), wk =   0.0061728
        k(  118) = (   0.4169752   0.3888889   0.0687972), wk =   0.0123457
        k(  119) = (   0.4169752   0.3888889   0.1375944), wk =   0.0123457
        k(  120) = (   0.4169752   0.3888889  -0.2063915), wk =   0.0061728
        k(  121) = (   0.3849002   0.2222222   0.0000000), wk =   0.0030864
        k(  122) = (   0.3849002   0.2222222   0.0687972), wk =   0.0061728
        k(  123) = (   0.3849002   0.2222222   0.1375944), wk =   0.0061728
        k(  124) = (   0.3849002   0.2222222  -0.2063915), wk =   0.0030864
        k(  125) = (   0.4169752   0.2777778   0.0000000), wk =   0.0061728
        k(  126) = (   0.4169752   0.2777778   0.0687972), wk =   0.0123457
        k(  127) = (   0.4169752   0.2777778   0.1375944), wk =   0.0123457
        k(  128) = (   0.4169752   0.2777778  -0.2063915), wk =   0.0061728
        k(  129) = (   0.4490502   0.3333333   0.0000000), wk =   0.0061728
        k(  130) = (   0.4490502   0.3333333   0.0687972), wk =   0.0123457
        k(  131) = (   0.4490502   0.3333333   0.1375944), wk =   0.0123457
        k(  132) = (   0.4490502   0.3333333  -0.2063915), wk =   0.0061728
        k(  133) = (   0.4811252   0.3888889   0.0000000), wk =   0.0030864
        k(  134) = (   0.4811252   0.3888889   0.0687972), wk =   0.0061728
        k(  135) = (   0.4811252   0.3888889   0.1375944), wk =   0.0061728
        k(  136) = (   0.4811252   0.3888889  -0.2063915), wk =   0.0030864
        k(  137) = (   0.4811252   0.2777778   0.0000000), wk =   0.0030864
        k(  138) = (   0.4811252   0.2777778   0.0687972), wk =   0.0061728
        k(  139) = (   0.4811252   0.2777778   0.1375944), wk =   0.0061728
        k(  140) = (   0.4811252   0.2777778  -0.2063915), wk =   0.0030864
        k(  141) = (   0.5132002   0.3333333   0.0000000), wk =   0.0061728
        k(  142) = (   0.5132002   0.3333333   0.0687972), wk =   0.0123457
        k(  143) = (   0.5132002   0.3333333   0.1375944), wk =   0.0123457
        k(  144) = (   0.5132002   0.3333333  -0.2063915), wk =   0.0061728
        k(  145) = (   0.5773503   0.3333333   0.0000000), wk =   0.0010288
        k(  146) = (   0.5773503   0.3333333   0.0687972), wk =   0.0020576
        k(  147) = (   0.5773503   0.3333333   0.1375944), wk =   0.0020576
        k(  148) = (   0.5773503   0.3333333  -0.2063915), wk =   0.0010288

                       cryst. coord.
        k(    1) = (   0.0000000   0.0000000   0.0000000), wk =   0.0005144
        k(    2) = (   0.0000000   0.0000000   0.1666667), wk =   0.0010288
        k(    3) = (   0.0000000   0.0000000   0.3333333), wk =   0.0010288
        k(    4) = (   0.0000000   0.0000000  -0.5000000), wk =   0.0005144
        k(    5) = (   0.0000000   0.0555556   0.0000000), wk =   0.0030864
        k(    6) = (   0.0000000   0.0555556   0.1666667), wk =   0.0061728
        k(    7) = (   0.0000000   0.0555556   0.3333333), wk =   0.0061728
        k(    8) = (   0.0000000   0.0555556  -0.5000000), wk =   0.0030864
        k(    9) = (   0.0000000   0.1111111   0.0000000), wk =   0.0030864
        k(   10) = (   0.0000000   0.1111111   0.1666667), wk =   0.0061728
        k(   11) = (   0.0000000   0.1111111   0.3333333), wk =   0.0061728
        k(   12) = (   0.0000000   0.1111111  -0.5000000), wk =   0.0030864
        k(   13) = (   0.0000000   0.1666667   0.0000000), wk =   0.0030864
        k(   14) = (   0.0000000   0.1666667   0.1666667), wk =   0.0061728
        k(   15) = (   0.0000000   0.1666667   0.3333333), wk =   0.0061728
        k(   16) = (   0.0000000   0.1666667  -0.5000000), wk =   0.0030864
        k(   17) = (   0.0000000   0.2222222   0.0000000), wk =   0.0030864
        k(   18) = (   0.0000000   0.2222222   0.1666667), wk =   0.0061728
        k(   19) = (   0.0000000   0.2222222   0.3333333), wk =   0.0061728
        k(   20) = (   0.0000000   0.2222222  -0.5000000), wk =   0.0030864
        k(   21) = (   0.0000000   0.2777778   0.0000000), wk =   0.0030864
        k(   22) = (   0.0000000   0.2777778   0.1666667), wk =   0.0061728
        k(   23) = (   0.0000000   0.2777778   0.3333333), wk =   0.0061728
        k(   24) = (   0.0000000   0.2777778  -0.5000000), wk =   0.0030864
        k(   25) = (   0.0000000   0.3333333   0.0000000), wk =   0.0030864
        k(   26) = (   0.0000000   0.3333333   0.1666667), wk =   0.0061728
        k(   27) = (   0.0000000   0.3333333   0.3333333), wk =   0.0061728
        k(   28) = (   0.0000000   0.3333333  -0.5000000), wk =   0.0030864
        k(   29) = (   0.0000000   0.3888889   0.0000000), wk =   0.0030864
        k(   30) = (   0.0000000   0.3888889   0.1666667), wk =   0.0061728
        k(   31) = (   0.0000000   0.3888889   0.3333333), wk =   0.0061728
        k(   32) = (   0.0000000   0.3888889  -0.5000000), wk =   0.0030864
        k(   33) = (   0.0000000   0.4444444   0.0000000), wk =   0.0030864
        k(   34) = (   0.0000000   0.4444444   0.1666667), wk =   0.0061728
        k(   35) = (   0.0000000   0.4444444   0.3333333), wk =   0.0061728
        k(   36) = (   0.0000000   0.4444444  -0.5000000), wk =   0.0030864
        k(   37) = (   0.0000000  -0.5000000   0.0000000), wk =   0.0015432
        k(   38) = (   0.0000000  -0.5000000   0.1666667), wk =   0.0030864
        k(   39) = (   0.0000000  -0.5000000   0.3333333), wk =   0.0030864
        k(   40) = (   0.0000000  -0.5000000  -0.5000000), wk =   0.0015432
        k(   41) = (   0.0555556   0.0555556   0.0000000), wk =   0.0030864
        k(   42) = (   0.0555556   0.0555556   0.1666667), wk =   0.0061728
        k(   43) = (   0.0555556   0.0555556   0.3333333), wk =   0.0061728
        k(   44) = (   0.0555556   0.0555556  -0.5000000), wk =   0.0030864
        k(   45) = (   0.0555556   0.1111111   0.0000000), wk =   0.0061728
        k(   46) = (   0.0555556   0.1111111   0.1666667), wk =   0.0123457
        k(   47) = (   0.0555556   0.1111111   0.3333333), wk =   0.0123457
        k(   48) = (   0.0555556   0.1111111  -0.5000000), wk =   0.0061728
        k(   49) = (   0.0555556   0.1666667   0.0000000), wk =   0.0061728
        k(   50) = (   0.0555556   0.1666667   0.1666667), wk =   0.0123457
        k(   51) = (   0.0555556   0.1666667   0.3333333), wk =   0.0123457
        k(   52) = (   0.0555556   0.1666667  -0.5000000), wk =   0.0061728
        k(   53) = (   0.0555556   0.2222222   0.0000000), wk =   0.0061728
        k(   54) = (   0.0555556   0.2222222   0.1666667), wk =   0.0123457
        k(   55) = (   0.0555556   0.2222222   0.3333333), wk =   0.0123457
        k(   56) = (   0.0555556   0.2222222  -0.5000000), wk =   0.0061728
        k(   57) = (   0.0555556   0.2777778   0.0000000), wk =   0.0061728
        k(   58) = (   0.0555556   0.2777778   0.1666667), wk =   0.0123457
        k(   59) = (   0.0555556   0.2777778   0.3333333), wk =   0.0123457
        k(   60) = (   0.0555556   0.2777778  -0.5000000), wk =   0.0061728
        k(   61) = (   0.0555556   0.3333333   0.0000000), wk =   0.0061728
        k(   62) = (   0.0555556   0.3333333   0.1666667), wk =   0.0123457
        k(   63) = (   0.0555556   0.3333333   0.3333333), wk =   0.0123457
        k(   64) = (   0.0555556   0.3333333  -0.5000000), wk =   0.0061728
        k(   65) = (   0.0555556   0.3888889   0.0000000), wk =   0.0061728
        k(   66) = (   0.0555556   0.3888889   0.1666667), wk =   0.0123457
        k(   67) = (   0.0555556   0.3888889   0.3333333), wk =   0.0123457
        k(   68) = (   0.0555556   0.3888889  -0.5000000), wk =   0.0061728
        k(   69) = (   0.0555556   0.4444444   0.0000000), wk =   0.0061728
        k(   70) = (   0.0555556   0.4444444   0.1666667), wk =   0.0123457
        k(   71) = (   0.0555556   0.4444444   0.3333333), wk =   0.0123457
        k(   72) = (   0.0555556   0.4444444  -0.5000000), wk =   0.0061728
        k(   73) = (   0.1111111   0.1111111   0.0000000), wk =   0.0030864
        k(   74) = (   0.1111111   0.1111111   0.1666667), wk =   0.0061728
        k(   75) = (   0.1111111   0.1111111   0.3333333), wk =   0.0061728
        k(   76) = (   0.1111111   0.1111111  -0.5000000), wk =   0.0030864
        k(   77) = (   0.1111111   0.1666667   0.0000000), wk =   0.0061728
        k(   78) = (   0.1111111   0.1666667   0.1666667), wk =   0.0123457
        k(   79) = (   0.1111111   0.1666667   0.3333333), wk =   0.0123457
        k(   80) = (   0.1111111   0.1666667  -0.5000000), wk =   0.0061728
        k(   81) = (   0.1111111   0.2222222   0.0000000), wk =   0.0061728
        k(   82) = (   0.1111111   0.2222222   0.1666667), wk =   0.0123457
        k(   83) = (   0.1111111   0.2222222   0.3333333), wk =   0.0123457
        k(   84) = (   0.1111111   0.2222222  -0.5000000), wk =   0.0061728
        k(   85) = (   0.1111111   0.2777778   0.0000000), wk =   0.0061728
        k(   86) = (   0.1111111   0.2777778   0.1666667), wk =   0.0123457
        k(   87) = (   0.1111111   0.2777778   0.3333333), wk =   0.0123457
        k(   88) = (   0.1111111   0.2777778  -0.5000000), wk =   0.0061728
        k(   89) = (   0.1111111   0.3333333   0.0000000), wk =   0.0061728
        k(   90) = (   0.1111111   0.3333333   0.1666667), wk =   0.0123457
        k(   91) = (   0.1111111   0.3333333   0.3333333), wk =   0.0123457
        k(   92) = (   0.1111111   0.3333333  -0.5000000), wk =   0.0061728
        k(   93) = (   0.1111111   0.3888889   0.0000000), wk =   0.0061728
        k(   94) = (   0.1111111   0.3888889   0.1666667), wk =   0.0123457
        k(   95) = (   0.1111111   0.3888889   0.3333333), wk =   0.0123457
        k(   96) = (   0.1111111   0.3888889  -0.5000000), wk =   0.0061728
        k(   97) = (   0.1111111   0.4444444   0.0000000), wk =   0.0030864
        k(   98) = (   0.1111111   0.4444444   0.1666667), wk =   0.0061728
        k(   99) = (   0.1111111   0.4444444   0.3333333), wk =   0.0061728
        k(  100) = (   0.1111111   0.4444444  -0.5000000), wk =   0.0030864
        k(  101) = (   0.1666667   0.1666667   0.0000000), wk =   0.0030864
        k(  102) = (   0.1666667   0.1666667   0.1666667), wk =   0.0061728
        k(  103) = (   0.1666667   0.1666667   0.3333333), wk =   0.0061728
        k(  104) = (   0.1666667   0.1666667  -0.5000000), wk =   0.0030864
        k(  105) = (   0.1666667   0.2222222   0.0000000), wk =   0.0061728
        k(  106) = (   0.1666667   0.2222222   0.1666667), wk =   0.0123457
        k(  107) = (   0.1666667   0.2222222   0.3333333), wk =   0.0123457
        k(  108) = (   0.1666667   0.2222222  -0.5000000), wk =   0.0061728
        k(  109) = (   0.1666667   0.2777778   0.0000000), wk =   0.0061728
        k(  110) = (   0.1666667   0.2777778   0.1666667), wk =   0.0123457
        k(  111) = (   0.1666667   0.2777778   0.3333333), wk =   0.0123457
        k(  112) = (   0.1666667   0.2777778  -0.5000000), wk =   0.0061728
        k(  113) = (   0.1666667   0.3333333   0.0000000), wk =   0.0061728
        k(  114) = (   0.1666667   0.3333333   0.1666667), wk =   0.0123457
        k(  115) = (   0.1666667   0.3333333   0.3333333), wk =   0.0123457
        k(  116) = (   0.1666667   0.3333333  -0.5000000), wk =   0.0061728
        k(  117) = (   0.1666667   0.3888889   0.0000000), wk =   0.0061728
        k(  118) = (   0.1666667   0.3888889   0.1666667), wk =   0.0123457
        k(  119) = (   0.1666667   0.3888889   0.3333333), wk =   0.0123457
        k(  120) = (   0.1666667   0.3888889  -0.5000000), wk =   0.0061728
        k(  121) = (   0.2222222   0.2222222   0.0000000), wk =   0.0030864
        k(  122) = (   0.2222222   0.2222222   0.1666667), wk =   0.0061728
        k(  123) = (   0.2222222   0.2222222   0.3333333), wk =   0.0061728
        k(  124) = (   0.2222222   0.2222222  -0.5000000), wk =   0.0030864
        k(  125) = (   0.2222222   0.2777778   0.0000000), wk =   0.0061728
        k(  126) = (   0.2222222   0.2777778   0.1666667), wk =   0.0123457
        k(  127) = (   0.2222222   0.2777778   0.3333333), wk =   0.0123457
        k(  128) = (   0.2222222   0.2777778  -0.5000000), wk =   0.0061728
        k(  129) = (   0.2222222   0.3333333   0.0000000), wk =   0.0061728
        k(  130) = (   0.2222222   0.3333333   0.1666667), wk =   0.0123457
        k(  131) = (   0.2222222   0.3333333   0.3333333), wk =   0.0123457
        k(  132) = (   0.2222222   0.3333333  -0.5000000), wk =   0.0061728
        k(  133) = (   0.2222222   0.3888889   0.0000000), wk =   0.0030864
        k(  134) = (   0.2222222   0.3888889   0.1666667), wk =   0.0061728
        k(  135) = (   0.2222222   0.3888889   0.3333333), wk =   0.0061728
        k(  136) = (   0.2222222   0.3888889  -0.5000000), wk =   0.0030864
        k(  137) = (   0.2777778   0.2777778   0.0000000), wk =   0.0030864
        k(  138) = (   0.2777778   0.2777778   0.1666667), wk =   0.0061728
        k(  139) = (   0.2777778   0.2777778   0.3333333), wk =   0.0061728
        k(  140) = (   0.2777778   0.2777778  -0.5000000), wk =   0.0030864
        k(  141) = (   0.2777778   0.3333333   0.0000000), wk =   0.0061728
        k(  142) = (   0.2777778   0.3333333   0.1666667), wk =   0.0123457
        k(  143) = (   0.2777778   0.3333333   0.3333333), wk =   0.0123457
        k(  144) = (   0.2777778   0.3333333  -0.5000000), wk =   0.0061728
        k(  145) = (   0.3333333   0.3333333   0.0000000), wk =   0.0010288
        k(  146) = (   0.3333333   0.3333333   0.1666667), wk =   0.0020576
        k(  147) = (   0.3333333   0.3333333   0.3333333), wk =   0.0020576
        k(  148) = (   0.3333333   0.3333333  -0.5000000), wk =   0.0010288

     Dense  grid:   355571 G-vectors     FFT dimensions: (  72,  72, 180)

     Smooth grid:   125655 G-vectors     FFT dimensions: (  50,  50, 120)

     Dynamical RAM for                 wfc:       4.50 MB

     Dynamical RAM for     wfc (w. buffer):       4.50 MB

     Dynamical RAM for             U proj.:       0.60 MB

     Dynamical RAM for  U proj. (w. buff.):       0.60 MB

     Dynamical RAM for           str. fact:       2.71 MB

     Dynamical RAM for           local pot:       0.00 MB

     Dynamical RAM for          nlocal pot:       7.97 MB

     Dynamical RAM for                qrad:       7.03 MB

     Dynamical RAM for          rho,v,vnew:       9.53 MB

     Dynamical RAM for           G-vectors:       2.66 MB

     Dynamical RAM for          h,s,v(r/c):       1.03 MB

     Dynamical RAM for          <psi|beta>:       0.61 MB

     Dynamical RAM for                 psi:       8.99 MB

     Dynamical RAM for                hpsi:       8.99 MB

     Dynamical RAM for                spsi:       8.99 MB

     Dynamical RAM for      wfcinit/wfcrot:       9.51 MB

     Dynamical RAM for           addusdens:     134.96 MB

     Estimated static dynamical RAM per process >      43.85 MB

     Estimated max dynamical RAM per process >     178.81 MB

     Estimated total dynamical RAM >       1.40 GB

     Check: negative core charge=   -0.000006
     Generating pointlists ...
     new r_m :   0.1536 (alat units)  1.5126 (a.u.) for type    1
     new r_m :   0.1536 (alat units)  1.5126 (a.u.) for type    2
     new r_m :   0.2195 (alat units)  2.1606 (a.u.) for type    3
     new r_m :   0.1635 (alat units)  1.6100 (a.u.) for type    4

     The potential is recalculated from file :
     ./tmp/K2Co2TeO6.save/charge-density


     HUBBARD ENERGY =    0.4025  (Ry)

     STARTING HUBBARD OCCUPATIONS:

     =================== HUBBARD OCCUPATIONS ===================
     ------------------------ ATOM    3 ------------------------
     Tr[ns(  3)] (up, down, total) =   4.97244  2.33132  7.30376
     Atomic magnetic moment for atom   3 =   2.64112
     SPIN  1
     eigenvalues:
       0.992  0.995  0.995  0.996  0.996
     eigenvectors (columns):
      -1.000  0.000 -0.000 -0.000 -0.000
      -0.000 -0.811  0.581 -0.058 -0.044
       0.000 -0.581 -0.811 -0.044  0.058
       0.000  0.043  0.059 -0.606  0.792
       0.000  0.059 -0.043 -0.792 -0.606
     occupation matrix ns (before diag.):
       0.992 -0.000  0.000  0.000  0.000
      -0.000  0.995 -0.000  0.000  0.000
       0.000 -0.000  0.995  0.000  0.000
       0.000  0.000  0.000  0.996 -0.000
       0.000  0.000  0.000 -0.000  0.996
     SPIN  2
     eigenvalues:
       0.163  0.163  0.516  0.516  0.974
     eigenvectors (columns):
      -0.000  0.000 -0.000 -0.000  1.000
       0.741  0.234 -0.500 -0.383 -0.000
       0.234 -0.741 -0.383  0.500 -0.000
       0.190 -0.601  0.472 -0.617  0.000
       0.601  0.190  0.617  0.472  0.000
     occupation matrix ns (before diag.):
       0.974 -0.000  0.000  0.000  0.000
      -0.000  0.303 -0.000  0.000 -0.173
       0.000 -0.000  0.303 -0.173  0.000
       0.000  0.000 -0.173  0.376 -0.000
       0.000 -0.173  0.000 -0.000  0.376
     ------------------------ ATOM    4 ------------------------
     Tr[ns(  4)] (up, down, total) =   4.97244  2.33132  7.30376
     Atomic magnetic moment for atom   4 =   2.64112
     SPIN  1
     eigenvalues:
       0.992  0.995  0.995  0.996  0.996
     eigenvectors (columns):
      -1.000 -0.000  0.000 -0.000 -0.000
      -0.000  0.851 -0.520  0.057  0.046
       0.000  0.520  0.851  0.046 -0.057
       0.000  0.038  0.062 -0.624  0.778
       0.000  0.062 -0.038 -0.778 -0.624
     occupation matrix ns (before diag.):
       0.992 -0.000  0.000  0.000  0.000
      -0.000  0.995 -0.000  0.000 -0.000
       0.000 -0.000  0.995 -0.000  0.000
       0.000  0.000 -0.000  0.996 -0.000
       0.000 -0.000  0.000 -0.000  0.996
     SPIN  2
     eigenvalues:
       0.163  0.163  0.516  0.516  0.974
     eigenvectors (columns):
      -0.000 -0.000 -0.000  0.000  1.000
      -0.560 -0.538  0.595  0.208  0.000
      -0.538  0.560  0.208 -0.595  0.000
       0.436 -0.454  0.257 -0.733  0.000
       0.454  0.436  0.733  0.257  0.000
     occupation matrix ns (before diag.):
       0.974 -0.000  0.000  0.000  0.000
      -0.000  0.303 -0.000  0.000  0.173
       0.000 -0.000  0.303  0.173  0.000
       0.000  0.000  0.173  0.376 -0.000
       0.000  0.173  0.000 -0.000  0.376
     ------------------------ ATOM    5 ------------------------
     Tr[ns(  5)] (up, down, total) =   4.97244  2.33132  7.30376
     Atomic magnetic moment for atom   5 =   2.64112
     SPIN  1
     eigenvalues:
       0.992  0.995  0.995  0.996  0.996
     eigenvectors (columns):
      -1.000 -0.000  0.000 -0.000 -0.000
      -0.000  0.835 -0.546  0.055  0.048
       0.000  0.546  0.835  0.048 -0.055
       0.000  0.040  0.061 -0.658  0.749
       0.000  0.061 -0.040 -0.749 -0.658
     occupation matrix ns (before diag.):
       0.992 -0.000  0.000  0.000  0.000
      -0.000  0.995 -0.000  0.000 -0.000
       0.000 -0.000  0.995 -0.000  0.000
       0.000  0.000 -0.000  0.996 -0.000
       0.000 -0.000  0.000 -0.000  0.996
     SPIN  2
     eigenvalues:
       0.163  0.163  0.516  0.516  0.974
     eigenvectors (columns):
      -0.000 -0.000 -0.000  0.000  1.000
      -0.563 -0.534  0.587  0.230  0.000
      -0.534  0.563  0.230 -0.587  0.000
       0.434 -0.457  0.283 -0.723  0.000
       0.457  0.434  0.723  0.283  0.000
     occupation matrix ns (before diag.):
       0.974 -0.000  0.000  0.000  0.000
      -0.000  0.303 -0.000  0.000  0.173
       0.000 -0.000  0.303  0.173  0.000
       0.000  0.000  0.173  0.376 -0.000
       0.000  0.173  0.000 -0.000  0.376
     ------------------------ ATOM    6 ------------------------
     Tr[ns(  6)] (up, down, total) =   4.97244  2.33132  7.30376
     Atomic magnetic moment for atom   6 =   2.64112
     SPIN  1
     eigenvalues:
       0.992  0.995  0.995  0.996  0.996
     eigenvectors (columns):
      -1.000  0.000 -0.000 -0.000 -0.000
      -0.000 -0.819  0.570 -0.058 -0.044
       0.000 -0.570 -0.819 -0.044  0.058
       0.000  0.042  0.060 -0.605  0.793
       0.000  0.060 -0.042 -0.793 -0.605
     occupation matrix ns (before diag.):
       0.992 -0.000  0.000  0.000  0.000
      -0.000  0.995 -0.000  0.000  0.000
       0.000 -0.000  0.995  0.000  0.000
       0.000  0.000  0.000  0.996 -0.000
       0.000  0.000  0.000 -0.000  0.996
     SPIN  2
     eigenvalues:
       0.163  0.163  0.516  0.516  0.974
     eigenvectors (columns):
       0.000 -0.000 -0.000 -0.000  1.000
      -0.514 -0.582 -0.496 -0.389 -0.000
      -0.582  0.514 -0.389  0.496 -0.000
      -0.472  0.417  0.480 -0.611  0.000
      -0.417 -0.472  0.611  0.480  0.000
     occupation matrix ns (before diag.):
       0.974 -0.000  0.000  0.000  0.000
      -0.000  0.303 -0.000  0.000 -0.173
       0.000 -0.000  0.303 -0.173  0.000
       0.000  0.000 -0.173  0.376 -0.000
       0.000 -0.173  0.000 -0.000  0.376

     Number of occupied Hubbard levels =   29.2150

     Atomic wfc used for Hubbard projectors are orthogonalized

     Starting wfcs are  140 randomized atomic wfcs +   10 random wfcs
     Checking if some PAW data can be deallocated... 
       PAW data deallocated on    3 nodes for type:  1
       PAW data deallocated on    6 nodes for type:  3

     Band Structure Calculation
     Davidson diagonalization with overlap

     Computing kpt #:     1  of   296
     total cpu time spent up to now is       35.5 secs

     Computing kpt #:     2  of   296
     total cpu time spent up to now is       46.0 secs

     Computing kpt #:     3  of   296
     total cpu time spent up to now is       58.0 secs

     Computing kpt #:     4  of   296
     total cpu time spent up to now is       66.2 secs

     Computing kpt #:     5  of   296
     total cpu time spent up to now is       75.8 secs

     Computing kpt #:     6  of   296
     c_bands:  1 eigenvalues not converged
     total cpu time spent up to now is       87.2 secs

     Computing kpt #:     7  of   296
     total cpu time spent up to now is       98.2 secs

     Computing kpt #:     8  of   296
     total cpu time spent up to now is      106.9 secs

     Computing kpt #:     9  of   296
     total cpu time spent up to now is      117.2 secs

     Computing kpt #:    10  of   296
     total cpu time spent up to now is      127.3 secs

     Computing kpt #:    11  of   296
     c_bands:  1 eigenvalues not converged
     total cpu time spent up to now is      138.6 secs

     Computing kpt #:    12  of   296
     total cpu time spent up to now is      150.1 secs

     Computing kpt #:    13  of   296
     c_bands:  1 eigenvalues not converged
     total cpu time spent up to now is      161.6 secs

     Computing kpt #:    14  of   296
     total cpu time spent up to now is      173.0 secs

     Computing kpt #:    15  of   296
     c_bands:  1 eigenvalues not converged
     total cpu time spent up to now is      184.5 secs

     Computing kpt #:    16  of   296
     total cpu time spent up to now is      194.4 secs

     Computing kpt #:    17  of   296
     c_bands:  1 eigenvalues not converged
     total cpu time spent up to now is      205.9 secs

     Computing kpt #:    18  of   296
     c_bands:  1 eigenvalues not converged
     total cpu time spent up to now is      217.4 secs

     Computing kpt #:    19  of   296
     total cpu time spent up to now is      226.7 secs

     Computing kpt #:    20  of   296
     total cpu time spent up to now is      237.7 secs

     Computing kpt #:    21  of   296
     total cpu time spent up to now is      247.4 secs

     Computing kpt #:    22  of   296
     total cpu time spent up to now is      256.3 secs

     Computing kpt #:    23  of   296
     total cpu time spent up to now is      267.6 secs

     Computing kpt #:    24  of   296
     total cpu time spent up to now is      278.2 secs

     Computing kpt #:    25  of   296
     total cpu time spent up to now is      288.7 secs

     Computing kpt #:    26  of   296
     total cpu time spent up to now is      297.9 secs

     Computing kpt #:    27  of   296
     total cpu time spent up to now is      308.7 secs

     Computing kpt #:    28  of   296
     total cpu time spent up to now is      319.1 secs

     Computing kpt #:    29  of   296
     total cpu time spent up to now is      328.9 secs

     Computing kpt #:    30  of   296
     total cpu time spent up to now is      338.4 secs

     Computing kpt #:    31  of   296
     total cpu time spent up to now is      348.5 secs

     Computing kpt #:    32  of   296
     total cpu time spent up to now is      357.8 secs

     Computing kpt #:    33  of   296
     total cpu time spent up to now is      369.0 secs

     Computing kpt #:    34  of   296
     total cpu time spent up to now is      378.0 secs

     Computing kpt #:    35  of   296
     total cpu time spent up to now is      387.6 secs

     Computing kpt #:    36  of   296
     total cpu time spent up to now is      398.0 secs

     Computing kpt #:    37  of   296
     total cpu time spent up to now is      409.7 secs

     Computing kpt #:    38  of   296
     total cpu time spent up to now is      418.7 secs

     Computing kpt #:    39  of   296
     total cpu time spent up to now is      428.6 secs

     Computing kpt #:    40  of   296
     total cpu time spent up to now is      438.1 secs

     Computing kpt #:    41  of   296
     total cpu time spent up to now is      447.6 secs

     Computing kpt #:    42  of   296
     total cpu time spent up to now is      458.9 secs

     Computing kpt #:    43  of   296
     c_bands:  1 eigenvalues not converged
     total cpu time spent up to now is      470.6 secs

     Computing kpt #:    44  of   296
     total cpu time spent up to now is      482.2 secs

     Computing kpt #:    45  of   296
     total cpu time spent up to now is      493.1 secs

     Computing kpt #:    46  of   296
     total cpu time spent up to now is      503.8 secs

     Computing kpt #:    47  of   296
     c_bands:  1 eigenvalues not converged
     total cpu time spent up to now is      516.1 secs

     Computing kpt #:    48  of   296
     total cpu time spent up to now is      529.2 secs

     Computing kpt #:    49  of   296
     total cpu time spent up to now is      538.4 secs

     Computing kpt #:    50  of   296
     total cpu time spent up to now is      548.6 secs

     Computing kpt #:    51  of   296
     total cpu time spent up to now is      558.9 secs

     Computing kpt #:    52  of   296
     total cpu time spent up to now is      569.9 secs

     Computing kpt #:    53  of   296
     total cpu time spent up to now is      579.4 secs

     Computing kpt #:    54  of   296
     total cpu time spent up to now is      588.2 secs

     Computing kpt #:    55  of   296
     total cpu time spent up to now is      597.6 secs

     Computing kpt #:    56  of   296
     total cpu time spent up to now is      608.6 secs

     Computing kpt #:    57  of   296
     total cpu time spent up to now is      617.9 secs

     Computing kpt #:    58  of   296
     total cpu time spent up to now is      626.8 secs

     Computing kpt #:    59  of   296
     total cpu time spent up to now is      636.7 secs

     Computing kpt #:    60  of   296
     total cpu time spent up to now is      647.7 secs

     Computing kpt #:    61  of   296
     total cpu time spent up to now is      657.6 secs

     Computing kpt #:    62  of   296
     total cpu time spent up to now is      667.0 secs

     Computing kpt #:    63  of   296
     total cpu time spent up to now is      679.2 secs

     Computing kpt #:    64  of   296
     total cpu time spent up to now is      688.6 secs

     Computing kpt #:    65  of   296
     total cpu time spent up to now is      700.9 secs

     Computing kpt #:    66  of   296
     total cpu time spent up to now is      710.0 secs

     Computing kpt #:    67  of   296
     total cpu time spent up to now is      720.4 secs

     Computing kpt #:    68  of   296
     total cpu time spent up to now is      729.7 secs

     Computing kpt #:    69  of   296
     total cpu time spent up to now is      741.0 secs

     Computing kpt #:    70  of   296
     total cpu time spent up to now is      750.7 secs

     Computing kpt #:    71  of   296
     total cpu time spent up to now is      762.3 secs

     Computing kpt #:    72  of   296
     total cpu time spent up to now is      772.5 secs

     Computing kpt #:    73  of   296
     total cpu time spent up to now is      781.3 secs

     Computing kpt #:    74  of   296
     total cpu time spent up to now is      791.4 secs

     Computing kpt #:    75  of   296
     c_bands:  1 eigenvalues not converged
     total cpu time spent up to now is      806.8 secs

     Computing kpt #:    76  of   296
     total cpu time spent up to now is      816.6 secs

     Computing kpt #:    77  of   296
     total cpu time spent up to now is      825.6 secs

     Computing kpt #:    78  of   296
     total cpu time spent up to now is      835.6 secs

     Computing kpt #:    79  of   296
     total cpu time spent up to now is      845.0 secs

     Computing kpt #:    80  of   296
     total cpu time spent up to now is      854.2 secs

     Computing kpt #:    81  of   296
     total cpu time spent up to now is      865.5 secs

     Computing kpt #:    82  of   296
     total cpu time spent up to now is      874.4 secs

     Computing kpt #:    83  of   296
     total cpu time spent up to now is      886.3 secs

     Computing kpt #:    84  of   296
     total cpu time spent up to now is      898.6 secs

     Computing kpt #:    85  of   296
     total cpu time spent up to now is      910.2 secs

     Computing kpt #:    86  of   296
     total cpu time spent up to now is      920.3 secs

     Computing kpt #:    87  of   296
     total cpu time spent up to now is      932.5 secs

     Computing kpt #:    88  of   296
     total cpu time spent up to now is      944.3 secs

     Computing kpt #:    89  of   296
     total cpu time spent up to now is      953.8 secs

     Computing kpt #:    90  of   296
     total cpu time spent up to now is      963.4 secs

     Computing kpt #:    91  of   296
     total cpu time spent up to now is      974.6 secs

     Computing kpt #:    92  of   296
     total cpu time spent up to now is      984.1 secs

     Computing kpt #:    93  of   296
     total cpu time spent up to now is      995.5 secs

     Computing kpt #:    94  of   296
     total cpu time spent up to now is     1004.6 secs

     Computing kpt #:    95  of   296
     total cpu time spent up to now is     1015.4 secs

     Computing kpt #:    96  of   296
     total cpu time spent up to now is     1025.6 secs

     Computing kpt #:    97  of   296
     total cpu time spent up to now is     1041.0 secs

     Computing kpt #:    98  of   296
     total cpu time spent up to now is     1056.1 secs

     Computing kpt #:    99  of   296
     total cpu time spent up to now is     1068.6 secs

     Computing kpt #:   100  of   296
     total cpu time spent up to now is     1077.8 secs

     Computing kpt #:   101  of   296
     total cpu time spent up to now is     1087.8 secs

     Computing kpt #:   102  of   296
     total cpu time spent up to now is     1098.1 secs

     Computing kpt #:   103  of   296
     total cpu time spent up to now is     1110.3 secs

     Computing kpt #:   104  of   296
     total cpu time spent up to now is     1122.9 secs

     Computing kpt #:   105  of   296
     total cpu time spent up to now is     1133.6 secs

     Computing kpt #:   106  of   296
     total cpu time spent up to now is     1143.6 secs

     Computing kpt #:   107  of   296
     c_bands:  1 eigenvalues not converged
     total cpu time spent up to now is     1156.1 secs

     Computing kpt #:   108  of   296
     total cpu time spent up to now is     1165.9 secs

     Computing kpt #:   109  of   296
     total cpu time spent up to now is     1176.7 secs

     Computing kpt #:   110  of   296
     total cpu time spent up to now is     1186.1 secs

     Computing kpt #:   111  of   296
     c_bands:  1 eigenvalues not converged
     total cpu time spent up to now is     1198.4 secs

     Computing kpt #:   112  of   296
     total cpu time spent up to now is     1208.3 secs

     Computing kpt #:   113  of   296
     total cpu time spent up to now is     1217.7 secs

     Computing kpt #:   114  of   296
     total cpu time spent up to now is     1227.3 secs

     Computing kpt #:   115  of   296
     total cpu time spent up to now is     1238.3 secs

     Computing kpt #:   116  of   296
     total cpu time spent up to now is     1249.2 secs

     Computing kpt #:   117  of   296
     total cpu time spent up to now is     1259.3 secs

     Computing kpt #:   118  of   296
     total cpu time spent up to now is     1268.6 secs

     Computing kpt #:   119  of   296
     total cpu time spent up to now is     1278.2 secs

     Computing kpt #:   120  of   296
     total cpu time spent up to now is     1287.5 secs

     Computing kpt #:   121  of   296
     total cpu time spent up to now is     1296.6 secs

     Computing kpt #:   122  of   296
     c_bands:  1 eigenvalues not converged
     total cpu time spent up to now is     1308.5 secs

     Computing kpt #:   123  of   296
     total cpu time spent up to now is     1318.9 secs

     Computing kpt #:   124  of   296
     total cpu time spent up to now is     1328.2 secs

     Computing kpt #:   125  of   296
     total cpu time spent up to now is     1337.9 secs

     Computing kpt #:   126  of   296
     total cpu time spent up to now is     1347.4 secs

     Computing kpt #:   127  of   296
     c_bands:  1 eigenvalues not converged
     total cpu time spent up to now is     1359.2 secs

     Computing kpt #:   128  of   296
     total cpu time spent up to now is     1368.4 secs

     Computing kpt #:   129  of   296
     total cpu time spent up to now is     1381.3 secs

     Computing kpt #:   130  of   296
     total cpu time spent up to now is     1390.6 secs

     Computing kpt #:   131  of   296
     total cpu time spent up to now is     1401.0 secs

     Computing kpt #:   132  of   296
     total cpu time spent up to now is     1412.4 secs

     Computing kpt #:   133  of   296
     c_bands:  1 eigenvalues not converged
     total cpu time spent up to now is     1424.1 secs

     Computing kpt #:   134  of   296
     total cpu time spent up to now is     1433.3 secs

     Computing kpt #:   135  of   296
     total cpu time spent up to now is     1442.5 secs

     Computing kpt #:   136  of   296
     total cpu time spent up to now is     1453.6 secs

     Computing kpt #:   137  of   296
     total cpu time spent up to now is     1466.0 secs

     Computing kpt #:   138  of   296
     total cpu time spent up to now is     1477.3 secs

     Computing kpt #:   139  of   296
     total cpu time spent up to now is     1488.6 secs

     Computing kpt #:   140  of   296
     total cpu time spent up to now is     1498.7 secs

     Computing kpt #:   141  of   296
     total cpu time spent up to now is     1510.8 secs

     Computing kpt #:   142  of   296
     total cpu time spent up to now is     1521.6 secs

     Computing kpt #:   143  of   296
     total cpu time spent up to now is     1531.8 secs

     Computing kpt #:   144  of   296
     total cpu time spent up to now is     1544.1 secs

     Computing kpt #:   145  of   296
     total cpu time spent up to now is     1553.8 secs

     Computing kpt #:   146  of   296
     total cpu time spent up to now is     1562.7 secs

     Computing kpt #:   147  of   296
     total cpu time spent up to now is     1573.2 secs

     Computing kpt #:   148  of   296
     total cpu time spent up to now is     1582.0 secs

     Computing kpt #:   149  of   296
     total cpu time spent up to now is     1591.6 secs

     Computing kpt #:   150  of   296
     total cpu time spent up to now is     1603.0 secs

     Computing kpt #:   151  of   296
     total cpu time spent up to now is     1615.7 secs

     Computing kpt #:   152  of   296
     total cpu time spent up to now is     1624.3 secs

     Computing kpt #:   153  of   296
     total cpu time spent up to now is     1636.3 secs

     Computing kpt #:   154  of   296
     c_bands:  1 eigenvalues not converged
     total cpu time spent up to now is     1647.8 secs

     Computing kpt #:   155  of   296
     c_bands:  1 eigenvalues not converged
     total cpu time spent up to now is     1659.1 secs

     Computing kpt #:   156  of   296
     total cpu time spent up to now is     1669.2 secs

     Computing kpt #:   157  of   296
     total cpu time spent up to now is     1679.0 secs

     Computing kpt #:   158  of   296
     total cpu time spent up to now is     1691.4 secs

     Computing kpt #:   159  of   296
     c_bands:  1 eigenvalues not converged
     total cpu time spent up to now is     1703.1 secs

     Computing kpt #:   160  of   296
     total cpu time spent up to now is     1715.1 secs

     Computing kpt #:   161  of   296
     total cpu time spent up to now is     1728.3 secs

     Computing kpt #:   162  of   296
     total cpu time spent up to now is     1742.2 secs

     Computing kpt #:   163  of   296
     total cpu time spent up to now is     1754.1 secs

     Computing kpt #:   164  of   296
     total cpu time spent up to now is     1764.1 secs

     Computing kpt #:   165  of   296
     total cpu time spent up to now is     1775.5 secs

     Computing kpt #:   166  of   296
     total cpu time spent up to now is     1787.3 secs

     Computing kpt #:   167  of   296
     total cpu time spent up to now is     1797.8 secs

     Computing kpt #:   168  of   296
     total cpu time spent up to now is     1809.1 secs

     Computing kpt #:   169  of   296
     total cpu time spent up to now is     1820.1 secs

     Computing kpt #:   170  of   296
     c_bands:  1 eigenvalues not converged
     total cpu time spent up to now is     1832.5 secs

     Computing kpt #:   171  of   296
     total cpu time spent up to now is     1844.5 secs

     Computing kpt #:   172  of   296
     total cpu time spent up to now is     1858.0 secs

     Computing kpt #:   173  of   296
     total cpu time spent up to now is     1870.8 secs

     Computing kpt #:   174  of   296
     total cpu time spent up to now is     1881.3 secs

     Computing kpt #:   175  of   296
     total cpu time spent up to now is     1891.1 secs

     Computing kpt #:   176  of   296
     total cpu time spent up to now is     1901.5 secs

     Computing kpt #:   177  of   296
     total cpu time spent up to now is     1911.2 secs

     Computing kpt #:   178  of   296
     total cpu time spent up to now is     1921.1 secs

     Computing kpt #:   179  of   296
     total cpu time spent up to now is     1932.0 secs

     Computing kpt #:   180  of   296
     total cpu time spent up to now is     1942.6 secs

     Computing kpt #:   181  of   296
     total cpu time spent up to now is     1956.1 secs

     Computing kpt #:   182  of   296
     total cpu time spent up to now is     1966.6 secs

     Computing kpt #:   183  of   296
     total cpu time spent up to now is     1979.8 secs

     Computing kpt #:   184  of   296
     total cpu time spent up to now is     1990.2 secs

     Computing kpt #:   185  of   296
     total cpu time spent up to now is     2003.4 secs

     Computing kpt #:   186  of   296
     total cpu time spent up to now is     2014.3 secs

     Computing kpt #:   187  of   296
     total cpu time spent up to now is     2026.6 secs

     Computing kpt #:   188  of   296
     total cpu time spent up to now is     2036.4 secs

     Computing kpt #:   189  of   296
     total cpu time spent up to now is     2045.3 secs

     Computing kpt #:   190  of   296
     c_bands:  1 eigenvalues not converged
     total cpu time spent up to now is     2057.2 secs

     Computing kpt #:   191  of   296
     c_bands:  1 eigenvalues not converged
     total cpu time spent up to now is     2068.9 secs

     Computing kpt #:   192  of   296
     total cpu time spent up to now is     2080.3 secs

     Computing kpt #:   193  of   296
     total cpu time spent up to now is     2092.2 secs

     Computing kpt #:   194  of   296
     total cpu time spent up to now is     2107.4 secs

     Computing kpt #:   195  of   296
     total cpu time spent up to now is     2118.2 secs

     Computing kpt #:   196  of   296
     total cpu time spent up to now is     2130.3 secs

     Computing kpt #:   197  of   296
     total cpu time spent up to now is     2141.2 secs

     Computing kpt #:   198  of   296
     total cpu time spent up to now is     2151.7 secs

     Computing kpt #:   199  of   296
     total cpu time spent up to now is     2162.4 secs

     Computing kpt #:   200  of   296
     total cpu time spent up to now is     2173.0 secs

     Computing kpt #:   201  of   296
     total cpu time spent up to now is     2183.7 secs

     Computing kpt #:   202  of   296
     total cpu time spent up to now is     2195.5 secs

     Computing kpt #:   203  of   296
     total cpu time spent up to now is     2206.2 secs

     Computing kpt #:   204  of   296
     total cpu time spent up to now is     2217.1 secs

     Computing kpt #:   205  of   296
     total cpu time spent up to now is     2227.3 secs

     Computing kpt #:   206  of   296
     total cpu time spent up to now is     2238.9 secs

     Computing kpt #:   207  of   296
     total cpu time spent up to now is     2248.9 secs

     Computing kpt #:   208  of   296
     total cpu time spent up to now is     2262.2 secs

     Computing kpt #:   209  of   296
     total cpu time spent up to now is     2271.9 secs

     Computing kpt #:   210  of   296
     total cpu time spent up to now is     2281.6 secs

     Computing kpt #:   211  of   296
     total cpu time spent up to now is     2293.2 secs

     Computing kpt #:   212  of   296
     total cpu time spent up to now is     2306.1 secs

     Computing kpt #:   213  of   296
     total cpu time spent up to now is     2315.5 secs

     Computing kpt #:   214  of   296
     total cpu time spent up to now is     2325.2 secs

     Computing kpt #:   215  of   296
     total cpu time spent up to now is     2336.9 secs

     Computing kpt #:   216  of   296
     total cpu time spent up to now is     2346.7 secs

     Computing kpt #:   217  of   296
     total cpu time spent up to now is     2357.2 secs

     Computing kpt #:   218  of   296
     total cpu time spent up to now is     2366.8 secs

     Computing kpt #:   219  of   296
     total cpu time spent up to now is     2377.4 secs

     Computing kpt #:   220  of   296
     total cpu time spent up to now is     2388.1 secs

     Computing kpt #:   221  of   296
     total cpu time spent up to now is     2397.1 secs

     Computing kpt #:   222  of   296
     total cpu time spent up to now is     2407.1 secs

     Computing kpt #:   223  of   296
     total cpu time spent up to now is     2419.3 secs

     Computing kpt #:   224  of   296
     total cpu time spent up to now is     2429.3 secs

     Computing kpt #:   225  of   296
     total cpu time spent up to now is     2440.6 secs

     Computing kpt #:   226  of   296
     total cpu time spent up to now is     2451.0 secs

     Computing kpt #:   227  of   296
     total cpu time spent up to now is     2462.1 secs

     Computing kpt #:   228  of   296
     total cpu time spent up to now is     2471.9 secs

     Computing kpt #:   229  of   296
     total cpu time spent up to now is     2481.1 secs

     Computing kpt #:   230  of   296
     total cpu time spent up to now is     2492.5 secs

     Computing kpt #:   231  of   296
     total cpu time spent up to now is     2501.8 secs

     Computing kpt #:   232  of   296
     total cpu time spent up to now is     2514.0 secs

     Computing kpt #:   233  of   296
     total cpu time spent up to now is     2523.6 secs

     Computing kpt #:   234  of   296
     total cpu time spent up to now is     2532.9 secs

     Computing kpt #:   235  of   296
     total cpu time spent up to now is     2543.3 secs

     Computing kpt #:   236  of   296
     total cpu time spent up to now is     2553.7 secs

     Computing kpt #:   237  of   296
     total cpu time spent up to now is     2563.1 secs

     Computing kpt #:   238  of   296
     total cpu time spent up to now is     2573.3 secs

     Computing kpt #:   239  of   296
     total cpu time spent up to now is     2583.1 secs

     Computing kpt #:   240  of   296
     total cpu time spent up to now is     2596.5 secs

     Computing kpt #:   241  of   296
     total cpu time spent up to now is     2606.9 secs

     Computing kpt #:   242  of   296
     total cpu time spent up to now is     2618.9 secs

     Computing kpt #:   243  of   296
     total cpu time spent up to now is     2629.8 secs

     Computing kpt #:   244  of   296
     total cpu time spent up to now is     2641.2 secs

     Computing kpt #:   245  of   296
     total cpu time spent up to now is     2651.9 secs

     Computing kpt #:   246  of   296
     total cpu time spent up to now is     2662.0 secs

     Computing kpt #:   247  of   296
     total cpu time spent up to now is     2671.3 secs

     Computing kpt #:   248  of   296
     total cpu time spent up to now is     2681.7 secs

     Computing kpt #:   249  of   296
     total cpu time spent up to now is     2691.6 secs

     Computing kpt #:   250  of   296
     total cpu time spent up to now is     2701.0 secs

     Computing kpt #:   251  of   296
     total cpu time spent up to now is     2710.5 secs

     Computing kpt #:   252  of   296
     total cpu time spent up to now is     2720.3 secs

     Computing kpt #:   253  of   296
     total cpu time spent up to now is     2730.5 secs

     Computing kpt #:   254  of   296
     total cpu time spent up to now is     2741.6 secs

     Computing kpt #:   255  of   296
     total cpu time spent up to now is     2755.2 secs

     Computing kpt #:   256  of   296
     total cpu time spent up to now is     2766.4 secs

     Computing kpt #:   257  of   296
     total cpu time spent up to now is     2776.0 secs

     Computing kpt #:   258  of   296
     total cpu time spent up to now is     2785.3 secs

     Computing kpt #:   259  of   296
     total cpu time spent up to now is     2795.9 secs

     Computing kpt #:   260  of   296
     total cpu time spent up to now is     2806.6 secs

     Computing kpt #:   261  of   296
     total cpu time spent up to now is     2815.8 secs

     Computing kpt #:   262  of   296
     total cpu time spent up to now is     2825.3 secs

     Computing kpt #:   263  of   296
     total cpu time spent up to now is     2835.8 secs

     Computing kpt #:   264  of   296
     total cpu time spent up to now is     2848.1 secs

     Computing kpt #:   265  of   296
     total cpu time spent up to now is     2859.1 secs

     Computing kpt #:   266  of   296
     total cpu time spent up to now is     2870.5 secs

     Computing kpt #:   267  of   296
     total cpu time spent up to now is     2881.7 secs

     Computing kpt #:   268  of   296
     total cpu time spent up to now is     2892.8 secs

     Computing kpt #:   269  of   296
     total cpu time spent up to now is     2903.3 secs

     Computing kpt #:   270  of   296
     total cpu time spent up to now is     2913.4 secs

     Computing kpt #:   271  of   296
     total cpu time spent up to now is     2925.5 secs

     Computing kpt #:   272  of   296
     total cpu time spent up to now is     2935.4 secs

     Computing kpt #:   273  of   296
     total cpu time spent up to now is     2944.7 secs

     Computing kpt #:   274  of   296
     total cpu time spent up to now is     2955.6 secs

     Computing kpt #:   275  of   296
     total cpu time spent up to now is     2967.6 secs

     Computing kpt #:   276  of   296
     total cpu time spent up to now is     2981.0 secs

     Computing kpt #:   277  of   296
     total cpu time spent up to now is     2991.9 secs

     Computing kpt #:   278  of   296
     total cpu time spent up to now is     3002.3 secs

     Computing kpt #:   279  of   296
     total cpu time spent up to now is     3014.3 secs

     Computing kpt #:   280  of   296
     total cpu time spent up to now is     3027.7 secs

     Computing kpt #:   281  of   296
     total cpu time spent up to now is     3039.6 secs

     Computing kpt #:   282  of   296
     total cpu time spent up to now is     3049.4 secs

     Computing kpt #:   283  of   296
     total cpu time spent up to now is     3059.6 secs

     Computing kpt #:   284  of   296
     total cpu time spent up to now is     3069.9 secs

     Computing kpt #:   285  of   296
     total cpu time spent up to now is     3080.8 secs

     Computing kpt #:   286  of   296
     total cpu time spent up to now is     3091.1 secs

     Computing kpt #:   287  of   296
     total cpu time spent up to now is     3101.5 secs

     Computing kpt #:   288  of   296
     total cpu time spent up to now is     3112.5 secs

     Computing kpt #:   289  of   296
     total cpu time spent up to now is     3123.8 secs

     Computing kpt #:   290  of   296
     total cpu time spent up to now is     3135.2 secs

     Computing kpt #:   291  of   296
     total cpu time spent up to now is     3144.9 secs

     Computing kpt #:   292  of   296
     total cpu time spent up to now is     3158.6 secs

     Computing kpt #:   293  of   296
     total cpu time spent up to now is     3169.1 secs

     Computing kpt #:   294  of   296
     total cpu time spent up to now is     3178.6 secs

     Computing kpt #:   295  of   296
     total cpu time spent up to now is     3190.1 secs

     Computing kpt #:   296  of   296
     total cpu time spent up to now is     3199.7 secs

     ethr =  5.32E-12,  avg # of iterations = 65.7

     total cpu time spent up to now is     3199.7 secs

[...]
     5.6243   5.6459   5.9657   5.9852   6.3236   6.3241   6.4845   6.4895
     7.8919   7.9072   7.9077   7.9296   8.4756   8.5006   9.2269   9.2358
     9.2908   9.3015   9.5521   9.5551  11.3550  11.4255  11.9031  11.9888
    12.0870  12.1208  12.1893  12.2128  12.3500  12.3555  13.0472  13.2689
    14.1514  14.3509  14.3765  14.4642  14.5849  14.7386  15.2277  15.3046
    15.3262  15.4242  15.9965  16.0367  16.1817  16.2382  16.2993  16.3330
    16.4873  16.5489  16.7418  16.7718  17.0048  17.0820  17.6732  17.7702
    17.9519  17.9959  18.4352  18.5717  18.6047  18.6663  18.9590  19.1614
    19.3575  19.4440  19.6787  19.6902  20.1249  20.2802  20.3758  20.4035
    20.5325  20.7910  21.3824  21.4370  21.6631  21.7878

     occupation numbers 
     1.0000   1.0000   1.0000   1.0000   1.0000   1.0000   1.0000   1.0000
     1.0000   1.0000   1.0000   1.0000   1.0000   1.0000   1.0000   1.0000
     1.0000   1.0000   1.0000   1.0000   1.0000   1.0000   1.0000   1.0000
     1.0000   1.0000   1.0000   1.0000   1.0000   1.0000   1.0000   1.0000
     1.0000   1.0000   1.0000   1.0000   1.0000   1.0000   1.0000   1.0000
     1.0000   1.0000   1.0000   1.0000   1.0000   1.0000   1.0000   1.0000
     1.0000   1.0000   1.0000   1.0000   1.0000   1.0000   1.0000   1.0000
     1.0000   1.0000   1.0000   1.0000   1.0000   1.0000   1.0000   1.0000
     1.0000   1.0000   1.0000   1.0000   1.0000   1.0000   1.0000   1.0000
     1.0000   1.0000   1.0000   1.0000   1.0000   1.0000   1.0000   1.0000
     1.0000   1.0000   1.0000   1.0000   1.0000   1.0000   0.5716   0.5353
     0.3144   0.2760   0.0007   0.0006   0.0000   0.0000   0.0000   0.0000
     0.0000   0.0000   0.0000   0.0000   0.0000   0.0000   0.0000   0.0000
     0.0000   0.0000   0.0000   0.0000   0.0000   0.0000   0.0000   0.0000
     0.0000   0.0000   0.0000   0.0000   0.0000   0.0000   0.0000   0.0000
     0.0000   0.0000   0.0000   0.0000   0.0000   0.0000   0.0000   0.0000
     0.0000   0.0000   0.0000   0.0000   0.0000   0.0000   0.0000   0.0000
     0.0000   0.0000   0.0000   0.0000   0.0000   0.0000   0.0000   0.0000
     0.0000   0.0000   0.0000   0.0000   0.0000   0.0000

          k = 0.5132 0.3333-0.2064 ( 15732 PWs)   bands (ev):

   -84.2383 -84.2383 -84.2380 -84.2380 -47.7492 -47.7492 -47.7400 -47.7400
   -47.7376 -47.7376 -47.7285 -47.7285 -47.4033 -47.4033 -47.4029 -47.4029
   -21.6495 -21.6495 -21.6101 -21.6101 -12.0676 -12.0676 -10.3966 -10.3966
   -10.2975 -10.2975  -9.6871  -9.6871  -9.2171  -9.2171  -9.1986  -9.1986
    -5.8563  -5.8563  -5.3117  -5.3117  -5.1715  -5.1715  -4.9914  -4.9914
    -4.9679  -4.9679  -4.6136  -4.6136  -1.7037  -1.7037   1.9336   1.9336
     2.0291   2.0291   2.1588   2.1588   3.1546   3.1546   3.2834   3.2834
     4.4571   4.4571   4.5958   4.5958   4.6509   4.6509   5.1965   5.1965
     5.2600   5.2600   5.2909   5.2909   5.4640   5.4640   5.5564   5.5564
     5.6346   5.6346   5.9756   5.9756   6.3238   6.3238   6.4869   6.4869
     7.8998   7.8998   7.9184   7.9184   8.4881   8.4881   9.2314   9.2314
     9.2962   9.2962   9.5536   9.5536  11.3916  11.3916  11.9403  11.9403
    12.1025  12.1025  12.2004  12.2004  12.3528  12.3528  13.1607  13.1607
    14.2621  14.2621  14.4596  14.4596  14.5985  14.5985  15.2865  15.2865
    15.3719  15.3719  16.0254  16.0254  16.2262  16.2262  16.2923  16.2923
    16.5039  16.5039  16.7527  16.7527  17.0296  17.0296  17.8388  17.8388
    17.8718  17.8718  18.5812  18.5812  18.6828  18.6828  18.8924  18.8924
    19.4166  19.4166  19.6845  19.6845  20.2760  20.2760  20.4241  20.4241
    20.5440  20.5440  21.4319  21.4319  21.9681  21.9681

     occupation numbers 
     1.0000   1.0000   1.0000   1.0000   1.0000   1.0000   1.0000   1.0000
     1.0000   1.0000   1.0000   1.0000   1.0000   1.0000   1.0000   1.0000
     1.0000   1.0000   1.0000   1.0000   1.0000   1.0000   1.0000   1.0000
     1.0000   1.0000   1.0000   1.0000   1.0000   1.0000   1.0000   1.0000
     1.0000   1.0000   1.0000   1.0000   1.0000   1.0000   1.0000   1.0000
     1.0000   1.0000   1.0000   1.0000   1.0000   1.0000   1.0000   1.0000
     1.0000   1.0000   1.0000   1.0000   1.0000   1.0000   1.0000   1.0000
     1.0000   1.0000   1.0000   1.0000   1.0000   1.0000   1.0000   1.0000
     1.0000   1.0000   1.0000   1.0000   1.0000   1.0000   1.0000   1.0000
     1.0000   1.0000   1.0000   1.0000   1.0000   1.0000   1.0000   1.0000
     1.0000   1.0000   1.0000   1.0000   1.0000   1.0000   0.5534   0.5534
     0.2947   0.2947   0.0007   0.0007   0.0000   0.0000   0.0000   0.0000
     0.0000   0.0000   0.0000   0.0000   0.0000   0.0000   0.0000   0.0000
     0.0000   0.0000   0.0000   0.0000   0.0000   0.0000   0.0000   0.0000
     0.0000   0.0000   0.0000   0.0000   0.0000   0.0000   0.0000   0.0000
     0.0000   0.0000   0.0000   0.0000   0.0000   0.0000   0.0000   0.0000
     0.0000   0.0000   0.0000   0.0000   0.0000   0.0000   0.0000   0.0000
     0.0000   0.0000   0.0000   0.0000   0.0000   0.0000   0.0000   0.0000
     0.0000   0.0000   0.0000   0.0000   0.0000   0.0000

          k = 0.5774 0.3333 0.0000 ( 15690 PWs)   bands (ev):

   -84.2381 -84.2381 -84.2381 -84.2381 -47.7492 -47.7492 -47.7388 -47.7388
   -47.7388 -47.7388 -47.7284 -47.7284 -47.4031 -47.4031 -47.4031 -47.4031
   -21.6301 -21.6301 -21.6296 -21.6296 -12.0660 -12.0568 -10.3634 -10.3634
   -10.3430 -10.3430  -9.7023  -9.6694  -9.2222  -9.2222  -9.1922  -9.1922
    -5.8935  -5.8275  -5.2475  -5.2475  -5.2340  -5.2340  -5.0019  -5.0019
    -4.9573  -4.9573  -4.6098  -4.6097  -1.7413  -1.6546   1.9277   1.9356
     2.0127   2.0127   2.1782   2.1782   3.2068   3.2068   3.2230   3.2230
     4.4621   4.4621   4.5767   4.6015   4.6419   4.6419   5.1578   5.1578
     5.2732   5.3076   5.3100   5.3100   5.5326   5.5326   5.5421   5.5528
     5.5528   5.6185   5.9512   5.9949   6.4071   6.4071   6.4089   6.4089
     7.8935   7.8935   7.9322   7.9322   8.4423   8.4935   9.2572   9.2572
     9.2770   9.2770   9.5511   9.5581  11.3075  11.4532  11.8831  12.0864
    12.1278  12.1278  12.1765  12.1765  12.3530  12.3687  12.8990  13.3737
    14.1423  14.1423  14.2732  14.6614  14.6614  14.8675  15.1827  15.1827
    15.4221  15.4221  15.9127  16.2457  16.2457  16.3264  16.3319  16.3319
    16.4011  16.6480  16.6480  16.7413  16.9389  16.9389  17.5482  17.5482
    18.1662  18.1662  18.2687  18.2687  18.5697  18.6302  19.2367  19.3161
    19.6865  19.6865  19.6977  19.7230  19.7301  19.7301  20.3902  20.5394
    20.5394  21.0890  21.3773  21.3773  21.4825  21.8290

     occupation numbers 
     1.0000   1.0000   1.0000   1.0000   1.0000   1.0000   1.0000   1.0000
     1.0000   1.0000   1.0000   1.0000   1.0000   1.0000   1.0000   1.0000
     1.0000   1.0000   1.0000   1.0000   1.0000   1.0000   1.0000   1.0000
     1.0000   1.0000   1.0000   1.0000   1.0000   1.0000   1.0000   1.0000
     1.0000   1.0000   1.0000   1.0000   1.0000   1.0000   1.0000   1.0000
     1.0000   1.0000   1.0000   1.0000   1.0000   1.0000   1.0000   1.0000
     1.0000   1.0000   1.0000   1.0000   1.0000   1.0000   1.0000   1.0000
     1.0000   1.0000   1.0000   1.0000   1.0000   1.0000   1.0000   1.0000
     1.0000   1.0000   1.0000   1.0000   1.0000   1.0000   1.0000   1.0000
     1.0000   1.0000   1.0000   1.0000   1.0000   1.0000   1.0000   1.0000
     1.0000   1.0000   1.0000   1.0000   1.0000   1.0000   0.4467   0.4467
     0.3671   0.3671   0.0007   0.0006   0.0000   0.0000   0.0000   0.0000
     0.0000   0.0000   0.0000   0.0000   0.0000   0.0000   0.0000   0.0000
     0.0000   0.0000   0.0000   0.0000   0.0000   0.0000   0.0000   0.0000
     0.0000   0.0000   0.0000   0.0000   0.0000   0.0000   0.0000   0.0000
     0.0000   0.0000   0.0000   0.0000   0.0000   0.0000   0.0000   0.0000
     0.0000   0.0000   0.0000   0.0000   0.0000   0.0000   0.0000   0.0000
     0.0000   0.0000   0.0000   0.0000   0.0000   0.0000   0.0000   0.0000
     0.0000   0.0000   0.0000   0.0000   0.0000   0.0000

          k = 0.5774 0.3333 0.0688 ( 15702 PWs)   bands (ev):

   -84.2381 -84.2381 -84.2381 -84.2381 -47.7492 -47.7492 -47.7388 -47.7388
   -47.7388 -47.7388 -47.7284 -47.7284 -47.4031 -47.4031 -47.4031 -47.4031
   -21.6300 -21.6300 -21.6296 -21.6296 -12.0654 -12.0574 -10.3620 -10.3620
   -10.3444 -10.3444  -9.7001  -9.6716  -9.2202  -9.2202  -9.1942  -9.1942
    -5.8891  -5.8319  -5.2467  -5.2467  -5.2350  -5.2350  -4.9988  -4.9988
    -4.9602  -4.9602  -4.6098  -4.6097  -1.7354  -1.6604   1.9282   1.9351
     2.0231   2.0231   2.1663   2.1663   3.2077   3.2077   3.2220   3.2220
     4.4746   4.4746   4.5786   4.6001   4.6300   4.6300   5.1684   5.1684
     5.2753   5.3001   5.3001   5.3051   5.5338   5.5338   5.5469   5.5515
     5.5515   5.6131   5.9543   5.9921   6.4070   6.4070   6.4087   6.4087
     7.8962   7.8962   7.9297   7.9297   8.4458   8.4901   9.2586   9.2586
     9.2757   9.2757   9.5516   9.5576  11.3183  11.4453  11.8893  12.0635
    12.1306  12.1306  12.1728  12.1728  12.3540  12.3676  12.9358  13.3423
    14.1718  14.1718  14.3135  14.6147  14.6147  14.8238  15.2128  15.2128
    15.4142  15.4142  15.9392  16.2500  16.2500  16.2687  16.3242  16.3242
    16.4559  16.6558  16.6558  16.7235  16.8945  16.8945  17.6053  17.6053
    18.0893  18.0893  18.3709  18.3709  18.5737  18.6261  19.2528  19.3452
    19.3908  19.3908  19.6995  19.7213  19.9885  19.9885  20.3713  20.5171
    20.5171  21.0307  21.4608  21.4608  21.4671  21.5826

     occupation numbers 
     1.0000   1.0000   1.0000   1.0000   1.0000   1.0000   1.0000   1.0000
     1.0000   1.0000   1.0000   1.0000   1.0000   1.0000   1.0000   1.0000
     1.0000   1.0000   1.0000   1.0000   1.0000   1.0000   1.0000   1.0000
     1.0000   1.0000   1.0000   1.0000   1.0000   1.0000   1.0000   1.0000
     1.0000   1.0000   1.0000   1.0000   1.0000   1.0000   1.0000   1.0000
     1.0000   1.0000   1.0000   1.0000   1.0000   1.0000   1.0000   1.0000
     1.0000   1.0000   1.0000   1.0000   1.0000   1.0000   1.0000   1.0000
     1.0000   1.0000   1.0000   1.0000   1.0000   1.0000   1.0000   1.0000
     1.0000   1.0000   1.0000   1.0000   1.0000   1.0000   1.0000   1.0000
     1.0000   1.0000   1.0000   1.0000   1.0000   1.0000   1.0000   1.0000
     1.0000   1.0000   1.0000   1.0000   1.0000   1.0000   0.4411   0.4411
     0.3722   0.3722   0.0007   0.0006   0.0000   0.0000   0.0000   0.0000
     0.0000   0.0000   0.0000   0.0000   0.0000   0.0000   0.0000   0.0000
     0.0000   0.0000   0.0000   0.0000   0.0000   0.0000   0.0000   0.0000
     0.0000   0.0000   0.0000   0.0000   0.0000   0.0000   0.0000   0.0000
     0.0000   0.0000   0.0000   0.0000   0.0000   0.0000   0.0000   0.0000
     0.0000   0.0000   0.0000   0.0000   0.0000   0.0000   0.0000   0.0000
     0.0000   0.0000   0.0000   0.0000   0.0000   0.0000   0.0000   0.0000
     0.0000   0.0000   0.0000   0.0000   0.0000   0.0000

          k = 0.5774 0.3333 0.1376 ( 15738 PWs)   bands (ev):

   -84.2381 -84.2381 -84.2381 -84.2381 -47.7492 -47.7492 -47.7388 -47.7388
   -47.7388 -47.7388 -47.7284 -47.7284 -47.4031 -47.4031 -47.4031 -47.4031
   -21.6300 -21.6300 -21.6297 -21.6297 -12.0637 -12.0591 -10.3584 -10.3584
   -10.3482 -10.3482  -9.6941  -9.6777  -9.2146  -9.2146  -9.1996  -9.1996
    -5.8771  -5.8441  -5.2444  -5.2444  -5.2377  -5.2377  -4.9904  -4.9904
    -4.9681  -4.9681  -4.6097  -4.6097  -1.7196  -1.6762   1.9296   1.9336
     2.0520   2.0520   2.1346   2.1346   3.2106   3.2106   3.2190   3.2190
     4.5083   4.5083   4.5835   4.5959   4.5976   4.5976   5.1970   5.1970
     5.2729   5.2729   5.2814   5.2986   5.5375   5.5375   5.5479   5.5479
     5.5603   5.5986   5.9625   5.9843   6.4071   6.4071   6.4080   6.4080
     7.9034   7.9034   7.9227   7.9227   8.4551   8.4807   9.2623   9.2623
     9.2721   9.2721   9.5529   9.5564  11.3476  11.4218  11.9116  12.0103
    12.1387  12.1387  12.1630  12.1630  12.3569  12.3647  13.0290  13.2589
    14.2541  14.2541  14.4204  14.5038  14.5038  14.7103  15.2772  15.2772
    15.3882  15.3882  16.0063  16.1822  16.2629  16.2629  16.3053  16.3053
    16.5335  16.6756  16.6811  16.6811  16.8068  16.8068  17.7294  17.7294
    17.9819  17.9819  18.5526  18.5526  18.5846  18.6148  19.0752  19.0752
    19.3035  19.3838  19.7042  19.7168  20.2021  20.2021  20.3851  20.4538
    20.4538  20.7949  21.4537  21.5140  21.6918  21.6918

     occupation numbers 
     1.0000   1.0000   1.0000   1.0000   1.0000   1.0000   1.0000   1.0000
     1.0000   1.0000   1.0000   1.0000   1.0000   1.0000   1.0000   1.0000
     1.0000   1.0000   1.0000   1.0000   1.0000   1.0000   1.0000   1.0000
     1.0000   1.0000   1.0000   1.0000   1.0000   1.0000   1.0000   1.0000
     1.0000   1.0000   1.0000   1.0000   1.0000   1.0000   1.0000   1.0000
     1.0000   1.0000   1.0000   1.0000   1.0000   1.0000   1.0000   1.0000
     1.0000   1.0000   1.0000   1.0000   1.0000   1.0000   1.0000   1.0000
     1.0000   1.0000   1.0000   1.0000   1.0000   1.0000   1.0000   1.0000
     1.0000   1.0000   1.0000   1.0000   1.0000   1.0000   1.0000   1.0000
     1.0000   1.0000   1.0000   1.0000   1.0000   1.0000   1.0000   1.0000
     1.0000   1.0000   1.0000   1.0000   1.0000   1.0000   0.4260   0.4260
     0.3861   0.3861   0.0007   0.0006   0.0000   0.0000   0.0000   0.0000
     0.0000   0.0000   0.0000   0.0000   0.0000   0.0000   0.0000   0.0000
     0.0000   0.0000   0.0000   0.0000   0.0000   0.0000   0.0000   0.0000
     0.0000   0.0000   0.0000   0.0000   0.0000   0.0000   0.0000   0.0000
     0.0000   0.0000   0.0000   0.0000   0.0000   0.0000   0.0000   0.0000
     0.0000   0.0000   0.0000   0.0000   0.0000   0.0000   0.0000   0.0000
     0.0000   0.0000   0.0000   0.0000   0.0000   0.0000   0.0000   0.0000
     0.0000   0.0000   0.0000   0.0000   0.0000   0.0000

          k = 0.5774 0.3333-0.2064 ( 15726 PWs)   bands (ev):

   -84.2381 -84.2381 -84.2381 -84.2381 -47.7492 -47.7492 -47.7388 -47.7388
   -47.7388 -47.7388 -47.7284 -47.7284 -47.4031 -47.4031 -47.4031 -47.4031
   -21.6298 -21.6298 -21.6298 -21.6298 -12.0614 -12.0614 -10.3533 -10.3533
   -10.3533 -10.3533  -9.6859  -9.6859  -9.2071  -9.2071  -9.2071  -9.2071
    -5.8606  -5.8606  -5.2412  -5.2412  -5.2412  -5.2412  -4.9792  -4.9792
    -4.9792  -4.9792  -4.6097  -4.6097  -1.6979  -1.6979   1.9317   1.9317
     2.0925   2.0925   2.0925   2.0925   3.2148   3.2148   3.2148   3.2148
     4.5533   4.5533   4.5533   4.5533   4.5899   4.5899   5.2353   5.2353
     5.2353   5.2353   5.2898   5.2898   5.5427   5.5427   5.5427   5.5427
     5.5792   5.5792   5.9736   5.9736   6.4074   6.4074   6.4074   6.4074
     7.9131   7.9131   7.9131   7.9131   8.4679   8.4679   9.2672   9.2672
     9.2672   9.2672   9.5546   9.5546  11.3860  11.3860  11.9536  11.9536
    12.1504  12.1504  12.1504  12.1504  12.3608  12.3608  13.1463  13.1463
    14.3729  14.3729  14.3729  14.3729  14.5638  14.5638  15.3412  15.3412
    15.3412  15.3412  16.0921  16.0921  16.2828  16.2828  16.2828  16.2828
    16.6090  16.6090  16.7302  16.7302  16.7302  16.7302  17.8621  17.8621
    17.8621  17.8621  18.5996  18.5996  18.7896  18.7896  18.7896  18.7896
    19.3648  19.3648  19.7106  19.7106  20.3518  20.3518  20.3518  20.3518
    20.5320  20.5320  21.4853  21.4853  22.0066  22.0066

     occupation numbers 
     1.0000   1.0000   1.0000   1.0000   1.0000   1.0000   1.0000   1.0000
     1.0000   1.0000   1.0000   1.0000   1.0000   1.0000   1.0000   1.0000
     1.0000   1.0000   1.0000   1.0000   1.0000   1.0000   1.0000   1.0000
     1.0000   1.0000   1.0000   1.0000   1.0000   1.0000   1.0000   1.0000
     1.0000   1.0000   1.0000   1.0000   1.0000   1.0000   1.0000   1.0000
     1.0000   1.0000   1.0000   1.0000   1.0000   1.0000   1.0000   1.0000
     1.0000   1.0000   1.0000   1.0000   1.0000   1.0000   1.0000   1.0000
     1.0000   1.0000   1.0000   1.0000   1.0000   1.0000   1.0000   1.0000
     1.0000   1.0000   1.0000   1.0000   1.0000   1.0000   1.0000   1.0000
     1.0000   1.0000   1.0000   1.0000   1.0000   1.0000   1.0000   1.0000
     1.0000   1.0000   1.0000   1.0000   1.0000   1.0000   0.4058   0.4058
     0.4058   0.4058   0.0006   0.0006   0.0000   0.0000   0.0000   0.0000
     0.0000   0.0000   0.0000   0.0000   0.0000   0.0000   0.0000   0.0000
     0.0000   0.0000   0.0000   0.0000   0.0000   0.0000   0.0000   0.0000
     0.0000   0.0000   0.0000   0.0000   0.0000   0.0000   0.0000   0.0000
     0.0000   0.0000   0.0000   0.0000   0.0000   0.0000   0.0000   0.0000
     0.0000   0.0000   0.0000   0.0000   0.0000   0.0000   0.0000   0.0000
     0.0000   0.0000   0.0000   0.0000   0.0000   0.0000   0.0000   0.0000
     0.0000   0.0000   0.0000   0.0000   0.0000   0.0000

     the Fermi energy is     9.2443 ev
     (compare with:     9.2440 eV, computed in scf)

     Writing all to output data dir ./tmp/K2Co2TeO6.save/ :
     XML data file, pseudopotentials, collected wavefunctions
 
     init_run     :     20.13s CPU     21.90s WALL (       1 calls)
     electrons    :   2881.12s CPU   3176.76s WALL (       1 calls)

     Called by init_run:
     wfcinit      :     18.28s CPU     19.52s WALL (       1 calls)
     wfcinit:atom :      0.23s CPU      0.75s WALL (     296 calls)
     wfcinit:wfcr :     81.15s CPU     88.69s WALL (     296 calls)
     potinit      :      1.26s CPU      1.44s WALL (       1 calls)
     hinit0       :      0.22s CPU      0.33s WALL (       1 calls)

     Called by electrons:
     c_bands      :   2881.08s CPU   3176.64s WALL (       1 calls)
     v_of_rho     :      0.13s CPU      0.20s WALL (       1 calls)
     v_h          :      0.00s CPU      0.01s WALL (       1 calls)
     v_xc         :      0.12s CPU      0.19s WALL (       1 calls)
     newd         :      0.23s CPU      0.41s WALL (       1 calls)
     PAW_pot      :      1.09s CPU      1.10s WALL (       1 calls)

     Called by c_bands:
     init_us_2    :      1.28s CPU      1.33s WALL (     592 calls)
     cegterg      :   2791.94s CPU   3071.03s WALL (    1127 calls)

     Called by sum_band:

     Called by *egterg:
     cdiaghg      :    406.06s CPU    431.51s WALL (   19753 calls)
     cegterg:over :    294.29s CPU    302.73s WALL (   19457 calls)
     cegterg:upda :    216.50s CPU    237.99s WALL (   19457 calls)
     cegterg:last :    436.73s CPU    525.95s WALL (    7639 calls)
     cdiaghg:chol :     36.14s CPU     36.59s WALL (   19753 calls)
     cdiaghg:inve :      9.18s CPU      9.29s WALL (   19753 calls)
     cdiaghg:para :     73.41s CPU     91.29s WALL (   39506 calls)
     h_psi        :   1341.92s CPU   1477.28s WALL (   20880 calls)
     s_psi        :    120.64s CPU    121.66s WALL (   21176 calls)
     g_psi        :      6.72s CPU      6.87s WALL (   19457 calls)

     Called by h_psi:
     h_psi:calbec :    137.55s CPU    149.15s WALL (   20880 calls)
     vloc_psi     :   1043.37s CPU   1163.76s WALL (   20880 calls)
     add_vuspsi   :    118.32s CPU    119.34s WALL (   20880 calls)
     vhpsi        :     38.07s CPU     39.29s WALL (   20880 calls)

     General routines
     calbec       :    165.36s CPU    178.25s WALL (   42056 calls)
     fft          :      0.07s CPU      0.20s WALL (      23 calls)
     ffts         :      0.00s CPU      0.02s WALL (       2 calls)
     fftw         :    935.94s CPU   1042.96s WALL ( 2355554 calls)
     interpolate  :      0.01s CPU      0.04s WALL (       2 calls)
     davcio       :      0.38s CPU      9.63s WALL (    1184 calls)
 
     Parallel routines

     Hubbard U routines
     vhpsi        :     38.07s CPU     39.29s WALL (   20880 calls)

     PAW routines
     PAW_pot      :      1.09s CPU      1.10s WALL (       1 calls)
 
     PWSCF        :  48m34.77s CPU  53m58.30s WALL

 
   This run was terminated on:  12:51:32   1Jul2025            

=------------------------------------------------------------------------------=
   JOB DONE.
=------------------------------------------------------------------------------=
